LAMMPS data file via write_data, version 29 Sep 2021, timestep = 25000

1542 atoms
14 atom types
1034 bonds
12 bond types
549 angles
23 angle types
62 dihedrals
20 dihedral types
4 impropers
3 improper types

-10.094 10.094 xlo xhi
-9.99 9.99 ylo yhi
-20.737 20.737 zlo zhi

Masses

1 1.008
2 1.008
3 1.008
4 1.008
5 12.011
6 12.011
7 12.011
8 12.011
9 14.007
10 14.007
11 15.999
12 15.999
13 22.99
14 35.45

Pair Coeffs # lj/charmmfsw/coul/long

1 0.034 2.38761 0.034 2.38761
2 0.022 2.35197 0.022 2.35197
3 0.046 0.400014 0.046 0.400014
4 0.046 0.400014 0.046 0.400014
5 0.11 3.56359 0.11 3.56359
6 0.07 3.56359 0.07 3.56359
7 0.032 3.56359 0.01 3.38542
8 0.056 3.58141 0.01 3.38542
9 0.2 3.29633 0.2 3.29633
10 0.2 3.29633 0.2 3.29633
11 0.12 3.02906 0.12 3.02906
12 0.1521 3.15057 0.1521 3.15057
13 0.0469 2.51367 0.0469 2.51367
14 0.15 4.04468 0.15 4.04468

Bond Coeffs # harmonic

1 200 1.522
2 222.5 1.538
3 222.5 1.53
4 309 1.111
5 330 1.08
6 450 0.9572
7 450 1.365
8 390 1.49
9 455 1
10 200 1.48
11 403 1.04
12 525 1.26

Angle Coeffs # charmm

1 52 108 0 0
2 58.35 113.5 11.16 2.561
3 58.35 113.6 11.16 2.561
4 62.3 120 0 0
5 26.5 110.1 22.53 2.179
6 26.5 110.1 22.53 2.179
7 35.5 109 5.4 1.802
8 50 109.5 0 0
9 35 111 0 0
10 49 120 0 0
11 40.4 120 0 0
12 25 120 0 0
13 30 109.5 20 2.074
14 44 109.5 0 0
15 55 104.52 0 0
16 40 120 70 2.31
17 67.7 107.5 0 0
18 56.5 107.5 0 0
19 43.7 110 0 0
20 67.7 110 0 0
21 51.5 107.5 0 0
22 40 118 50 2.388
23 100 124 70 2.225

Dihedral Coeffs # charmmfsw

1 0.63 1 180 1
2 0.01 2 0 0
3 0.15 3 0 0
4 0.19 3 0 1
5 0.19 3 0 1
6 0.19 3 0 1
7 0 6 180 1
8 0 6 180 1
9 2.25 2 180 1
10 0.19 3 0 1
11 0.19 3 0 1
12 0 6 180 1
13 0 6 180 1
14 0.2 3 0 1
15 0.2 3 0 1
16 2.25 2 180 1
17 3.2 2 180 1
18 0.05 6 180 1
19 0.2 3 0 1
20 0.1 3 0 1

Improper Coeffs # harmonic

1 0 0
2 45 0
3 96 0

Atoms # full

1 1 10 -0.3 -5.91443 4.33164 -4.74067 0 0 0
2 1 3 0.33 -6.84813 4.50873 -5.16308 0 0 0
3 1 3 0.33 -5.19769 4.10945 -5.46075 0 0 0
4 1 3 0.33 -5.56149 5.22642 -4.3452 0 0 0
5 1 7 0.21 -6.04676 3.16702 -3.72418 0 0 0
6 1 2 0.1 -6.635 2.3786 -4.17002 0 0 0
7 1 8 -0.18 -4.55469 2.57799 -3.45515 0 0 0
8 1 1 0.09 -4.04064 2.16039 -4.34717 0 0 0
9 1 1 0.09 -4.63738 1.68524 -2.79904 0 0 0
10 1 8 -0.18 -3.55069 3.52116 -2.82648 0 0 0
11 1 1 0.09 -4.05614 4.35481 -2.29369 0 0 0
12 1 1 0.09 -2.95393 4.04352 -3.60451 0 0 0
13 1 8 0.2 -2.71842 2.91505 -1.67045 0 0 0
14 1 1 0.09 -3.47185 2.40226 -1.03507 0 0 0
15 1 1 0.09 -2.16123 3.66628 -1.07085 0 0 0
16 1 9 -0.7 -1.75567 1.84673 -2.27545 0 0 0
17 1 3 0.44 -1.57517 1.8068 -3.25821 0 0 0
18 1 5 0.64 -1.1714 0.848823 -1.57699 0 0 0
19 1 9 -0.8 -0.602413 -0.14918 -2.19469 0 0 0
20 1 3 0.46 -0.809443 -0.389167 -3.14313 0 0 0
21 1 3 0.46 0.129634 -0.679931 -1.76759 0 0 0
22 1 9 -0.8 -1.24922 0.814549 -0.2795 0 0 0
23 1 3 0.46 -1.71521 1.49566 0.28524 0 0 0
24 1 3 0.46 -0.745036 0.0180548 0.0542653 0 0 0
25 1 6 0.34 -6.74029 3.4672 -2.44954 0 0 0
26 1 11 -0.67 -7.329 4.58982 -2.28607 0 0 0
27 1 11 -0.67 -6.82394 2.60384 -1.54263 0 0 0
28 1 12 -0.834 2.00737 8.34609 -20.4413 0 0 0
29 1 4 0.417 2.17235 9.26413 -20.2263 0 0 0
30 1 4 0.417 1.16409 8.35347 20.5798 0 0 -1
31 2 12 -0.834 6.36148 2.20521 -8.93859 0 0 0
32 2 4 0.417 6.86335 2.85479 -9.43094 0 0 0
33 2 4 0.417 6.0041 1.62089 -9.60723 0 0 0
34 3 12 -0.834 2.48556 -3.86897 -5.71998 0 0 0
35 3 4 0.417 1.91938 -4.23896 -5.04265 0 0 0
36 3 4 0.417 3.19111 -3.44055 -5.23533 0 0 0
37 4 12 -0.834 8.57785 0.678897 -10.9725 0 0 0
38 4 4 0.417 8.60161 1.06599 -11.8476 0 0 0
39 4 4 0.417 9.29926 1.09929 -10.5044 0 0 0
40 5 12 -0.834 3.88574 -3.11962 -9.99137 0 0 0
41 5 4 0.417 4.32931 -3.81972 -10.4703 0 0 0
42 5 4 0.417 3.98949 -2.34639 -10.546 0 0 0
43 6 12 -0.834 -7.95437 0.195245 -13.2644 0 0 0
44 6 4 0.417 -7.57264 0.348204 -12.4 0 0 0
45 6 4 0.417 -8.5143 -0.572185 -13.1471 0 0 0
46 7 12 -0.834 -0.0364349 -7.09326 -10.9895 0 0 0
47 7 4 0.417 0.812962 -6.66236 -10.8942 0 0 0
48 7 4 0.417 0.058541 -7.91868 -10.5142 0 0 0
49 8 12 -0.834 4.00126 9.46166 -14.5192 0 0 0
50 8 4 0.417 4.39693 -9.68113 -14.7617 0 1 0
51 8 4 0.417 4.2201 8.87436 -15.2427 0 0 0
52 9 12 -0.834 6.89889 -0.310294 -4.32503 0 0 0
53 9 4 0.417 7.31144 -1.01036 -3.81913 0 0 0
54 9 4 0.417 7.14196 -0.494575 -5.23233 0 0 0
55 10 12 -0.834 -6.26264 -4.02672 -5.62317 1 0 0
56 10 4 0.417 -5.81709 -4.79153 -5.98755 1 0 0
57 10 4 0.417 -5.6326 -3.65281 -5.00716 1 0 0
58 11 12 -0.834 7.83179 8.2473 -4.66242 0 -1 0
59 11 4 0.417 7.7922 7.97613 -3.74529 0 -1 0
60 11 4 0.417 8.09943 7.45879 -5.13449 0 -1 0
61 12 12 -0.834 6.38532 8.58238 -8.17955 0 -1 0
62 12 4 0.417 6.1407 7.79708 -7.68996 0 -1 0
63 12 4 0.417 5.55802 8.91644 -8.52627 0 -1 0
64 13 12 -0.834 2.97601 -5.68919 -19.2056 0 0 0
65 13 4 0.417 3.45119 -6.1801 -18.5352 0 0 0
66 13 4 0.417 3.65253 -5.18742 -19.6604 0 0 0
67 14 12 -0.834 -6.66931 -8.63093 -14.8771 0 0 0
68 14 4 0.417 -6.23831 -9.13484 -14.1867 0 0 0
69 14 4 0.417 -7.51377 -8.38234 -14.5011 0 0 0
70 15 12 -0.834 -4.11451 3.51531 -6.71624 0 0 0
71 15 4 0.417 -3.46888 2.83966 -6.92333 0 0 0
72 15 4 0.417 -4.28822 3.94588 -7.5533 0 0 0
73 16 12 -0.834 -8.85769 -3.25174 -5.1837 1 0 0
74 16 4 0.417 -9.41012 -3.7392 -5.79479 1 0 0
75 16 4 0.417 -7.98724 -3.63596 -5.28819 1 0 0
76 17 12 -0.834 -1.56701 6.49615 -14.5301 0 0 0
77 17 4 0.417 -2.35991 7.01924 -14.4122 0 0 0
78 17 4 0.417 -1.82891 5.60653 -14.293 0 0 0
79 18 12 -0.834 -0.396357 -1.232 -9.63685 0 0 0
80 18 4 0.417 -0.513795 -2.0493 -10.1211 0 0 0
81 18 4 0.417 0.0677368 -0.657082 -10.2454 0 0 0
82 19 12 -0.834 -5.67195 -0.627061 -9.8204 0 0 0
83 19 4 0.417 -5.05775 -0.488909 -9.09935 0 0 0
84 19 4 0.417 -6.51384 -0.782109 -9.39214 0 0 0
85 20 12 -0.834 8.06775 -3.02732 -3.88644 0 0 0
86 20 4 0.417 8.89953 -2.59247 -3.69864 0 0 0
87 20 4 0.417 8.0414 -3.09291 -4.84103 0 0 0
88 21 12 -0.834 1.81753 -8.79988 -20.1428 0 0 0
89 21 4 0.417 2.13789 -8.59485 -19.2644 0 0 0
90 21 4 0.417 0.976766 -8.34638 -20.2035 0 0 0
91 22 12 -0.834 -8.72631 8.84927 -12.721 0 0 0
92 22 4 0.417 -9.46647 9.18404 -12.2147 0 0 0
93 22 4 0.417 -7.9579 9.05946 -12.1903 0 0 0
94 23 12 -0.834 0.234025 7.87321 -12.0184 0 0 0
95 23 4 0.417 1.06588 8.3244 -11.8746 0 0 0
96 23 4 0.417 -0.0688646 8.1933 -12.8681 0 0 0
97 24 12 -0.834 5.77721 1.11579 -11.5457 0 0 0
98 24 4 0.417 6.57435 1.51692 -11.8919 0 0 0
99 24 4 0.417 5.73227 0.261589 -11.9753 0 0 0
100 25 12 -0.834 -8.62332 7.9838 -15.3544 1 -1 0
101 25 4 0.417 -8.70655 8.88202 -15.6745 1 -1 0
102 25 4 0.417 -8.59125 8.07061 -14.4017 1 -1 0
103 26 12 -0.834 -9.50311 5.2986 -16.1616 1 -1 0
104 26 4 0.417 -9.00348 6.01267 -15.7658 1 -1 0
105 26 4 0.417 9.88673 5.7154 -16.4864 0 -1 0
106 27 12 -0.834 8.77602 -1.34765 -13.7545 0 0 0
107 27 4 0.417 8.44346 -1.03664 -14.5964 0 0 0
108 27 4 0.417 8.93263 -0.550091 -13.2489 0 0 0
109 28 12 -0.834 2.73346 0.647088 -16.4503 0 0 0
110 28 4 0.417 3.61072 0.852844 -16.1273 0 0 0
111 28 4 0.417 2.1578 0.813274 -15.7038 0 0 0
112 29 12 -0.834 9.96758 3.5766 -13.6582 0 0 0
113 29 4 0.417 -9.6144 4.12256 -13.1573 1 0 0
114 29 4 0.417 -9.95269 3.69482 -14.5696 1 0 0
115 30 12 -0.834 -1.97834 -7.37204 -13.0941 0 0 0
116 30 4 0.417 -1.82589 -6.99833 -13.9621 0 0 0
117 30 4 0.417 -1.13034 -7.31121 -12.6544 0 0 0
118 31 12 -0.834 -6.93953 -3.23619 -18.2363 0 0 0
119 31 4 0.417 -7.33625 -4.10619 -18.2805 0 0 0
120 31 4 0.417 -7.49334 -2.75068 -17.6249 0 0 0
121 32 12 -0.834 4.0295 -1.4468 -4.12571 0 0 0
122 32 4 0.417 4.76166 -0.940997 -4.47832 0 0 0
123 32 4 0.417 3.2972 -1.2476 -4.70905 0 0 0
124 33 12 -0.834 2.77264 -1.99055 -13.4057 0 0 0
125 33 4 0.417 2.25462 -1.96833 -14.2103 0 0 0
126 33 4 0.417 2.22398 -1.55281 -12.7549 0 0 0
127 34 12 -0.834 4.06307 -4.76825 -13.9146 0 0 0
128 34 4 0.417 3.57708 -3.94402 -13.9408 0 0 0
129 34 4 0.417 4.9455 -4.51793 -13.6409 0 0 0
130 35 12 -0.834 -1.07434 5.40558 19.0327 0 0 -1
131 35 4 0.417 -0.440611 5.11385 18.3773 0 0 -1
132 35 4 0.417 -1.1558 4.66528 19.6339 0 0 -1
133 36 12 -0.834 1.48143 5.31373 -14.1336 0 0 0
134 36 4 0.417 2.12127 5.38703 -13.4255 0 0 0
135 36 4 0.417 1.34675 6.21403 -14.4295 0 0 0
136 37 12 -0.834 -5.7718 4.90492 -13.1638 0 0 0
137 37 4 0.417 -5.27646 5.40519 -13.8124 0 0 0
138 37 4 0.417 -5.25571 4.1102 -13.0285 0 0 0
139 38 12 -0.834 3.31586 2.21595 -2.47332 0 0 0
140 38 4 0.417 4.00196 1.64149 -2.13349 0 0 0
141 38 4 0.417 2.55096 2.02299 -1.93117 0 0 0
142 39 12 -0.834 1.10765 5.40618 -6.56659 0 0 0
143 39 4 0.417 0.338941 5.31433 -6.00366 0 0 0
144 39 4 0.417 1.22793 6.35156 -6.65615 0 0 0
145 40 12 -0.834 -6.00525 0.324633 -18.6521 0 0 0
146 40 4 0.417 -6.51905 -0.47393 -18.7727 0 0 0
147 40 4 0.417 -6.35575 0.717044 -17.8524 0 0 0
148 41 12 -0.834 1.63094 -3.87136 -8.48766 0 1 0
149 41 4 0.417 2.24404 -3.46438 -9.0998 0 1 0
150 41 4 0.417 2.18015 -4.17783 -7.76608 0 1 0
151 42 12 -0.834 -0.334224 4.78794 15.9778 0 0 -1
152 42 4 0.417 0.406968 4.25379 15.6923 0 0 -1
153 42 4 0.417 -0.192516 5.63769 15.5606 0 0 -1
154 43 12 -0.834 -6.28069 2.01333 1.10114 0 0 0
155 43 4 0.417 -6.22265 2.78809 1.66025 0 0 0
156 43 4 0.417 -6.53639 2.35446 0.244121 0 0 0
157 44 12 -0.834 8.09825 6.53599 18.7474 0 -1 -1
158 44 4 0.417 7.92928 7.41385 18.4053 0 -1 -1
159 44 4 0.417 8.76739 6.66506 19.4196 0 -1 -1
160 45 12 -0.834 9.10706 -3.37176 -10.271 -1 0 0
161 45 4 0.417 8.47228 -2.7636 -9.89227 -1 0 0
162 45 4 0.417 9.80828 -2.81098 -10.6027 -1 0 0
163 46 12 -0.834 -7.85231 -4.94772 -12.674 1 1 0
164 46 4 0.417 -8.25969 -4.11315 -12.9059 1 1 0
165 46 4 0.417 -8.48061 -5.36616 -12.0855 1 1 0
166 47 12 -0.834 2.70652 -0.149245 -6.41774 0 0 0
167 47 4 0.417 2.35029 0.72181 -6.24282 0 0 0
168 47 4 0.417 2.02763 -0.587588 -6.93076 0 0 0
169 48 12 -0.834 2.88617 5.77668 -17.3665 0 0 0
170 48 4 0.417 2.60921 5.31336 -18.157 0 0 0
171 48 4 0.417 2.0688 6.04453 -16.9465 0 0 0
172 49 12 -0.834 7.94625 -9.10936 -7.59543 0 0 0
173 49 4 0.417 7.28334 -8.66709 -7.06517 0 0 0
174 49 4 0.417 7.53518 -9.93398 -7.85477 0 0 0
175 50 12 -0.834 1.15034 3.60666 -3.55071 0 0 0
176 50 4 0.417 0.529348 2.97267 -3.90939 0 0 0
177 50 4 0.417 1.91995 3.0856 -3.3217 0 0 0
178 51 12 -0.834 -8.334 6.09818 -9.22113 0 0 0
179 51 4 0.417 -7.54281 6.43021 -8.79686 0 0 0
180 51 4 0.417 -8.03576 5.34255 -9.7274 0 0 0
181 52 12 -0.834 7.98064 0.0434461 -15.8735 -1 0 0
182 52 4 0.417 8.70147 0.529106 -16.2744 -1 0 0
183 52 4 0.417 7.60542 -0.465778 -16.5919 -1 0 0
184 53 12 -0.834 -2.12828 2.89018 19.809 0 1 -1
185 53 4 0.417 -2.93876 2.85863 19.3007 0 1 -1
186 53 4 0.417 -1.54251 2.27703 19.365 0 1 -1
187 54 12 -0.834 0.269661 -4.67967 -13.4167 0 0 0
188 54 4 0.417 0.452232 -3.85735 -13.8713 0 0 0
189 54 4 0.417 -0.218027 -5.20256 -14.0531 0 0 0
190 55 12 -0.834 -1.39957 7.87673 -9.64901 0 -1 0
191 55 4 0.417 -1.06734 7.9575 -10.5431 0 -1 0
192 55 4 0.417 -0.930855 8.55086 -9.15699 0 -1 0
193 56 12 -0.834 4.98678 -6.09038 -6.89033 0 0 0
194 56 4 0.417 5.37612 -5.21831 -6.95463 0 0 0
195 56 4 0.417 5.26945 -6.41701 -6.03613 0 0 0
196 57 12 -0.834 -3.27203 -3.31928 -8.44525 0 0 0
197 57 4 0.417 -3.88962 -4.00918 -8.20263 0 0 0
198 57 4 0.417 -2.47214 -3.78689 -8.68556 0 0 0
199 58 12 -0.834 -0.281463 9.47917 -1.65311 0 -1 0
200 58 4 0.417 -0.35023 8.96613 -0.84794 0 -1 0
201 58 4 0.417 0.606688 9.83569 -1.63539 0 -1 0
202 59 12 -0.834 3.84049 9.77818 -9.38489 0 -1 0
203 59 4 0.417 4.04346 -9.28674 -9.19078 0 0 0
204 59 4 0.417 3.21786 9.81923 -10.1108 0 -1 0
205 60 12 -0.834 4.15576 -4.68606 13.9529 0 0 -1
206 60 4 0.417 3.5246 -5.30526 13.5862 0 0 -1
207 60 4 0.417 4.9968 -4.95241 13.5815 0 0 -1
208 61 12 -0.834 -7.1684 -1.21496 20.7359 0 0 -1
209 61 4 0.417 -6.93821 -1.63483 19.9071 0 0 -1
210 61 4 0.417 -7.04819 -1.90004 -20.0805 0 0 0
211 62 12 -0.834 5.2267 -6.95249 -4.47338 0 0 0
212 62 4 0.417 4.49587 -6.94716 -3.85524 0 0 0
213 62 4 0.417 6.00491 -7.04691 -3.9241 0 0 0
214 63 12 -0.834 -4.4319 2.36215 -11.6534 0 -1 0
215 63 4 0.417 -4.33744 1.4216 -11.5028 0 -1 0
216 63 4 0.417 -3.81377 2.55562 -12.3582 0 -1 0
217 64 12 -0.834 -9.18952 -9.78279 -16.7714 0 0 0
218 64 4 0.417 -9.94983 -9.89463 -17.3421 0 0 0
219 64 4 0.417 -8.51221 -9.42015 -17.3424 0 0 0
220 65 12 -0.834 3.96533 -1.90092 4.55565 0 0 0
221 65 4 0.417 4.3934 -2.72412 4.32044 0 0 0
222 65 4 0.417 4.50568 -1.542 5.25952 0 0 0
223 66 12 -0.834 8.28982 -6.72949 -11.4851 0 0 0
224 66 4 0.417 8.90392 -7.43123 -11.7011 0 0 0
225 66 4 0.417 8.84662 -5.9872 -11.2501 0 0 0
226 67 12 -0.834 2.97051 -2.25493 1.92194 0 0 0
227 67 4 0.417 3.09071 -3.17114 1.67228 0 0 0
228 67 4 0.417 3.48632 -2.15455 2.722 0 0 0
229 68 12 -0.834 -1.5079 -3.18197 15.1462 0 0 -1
230 68 4 0.417 -0.707294 -3.07567 15.66 0 0 -1
231 68 4 0.417 -1.73135 -2.29509 14.8638 0 0 -1
232 69 12 -0.834 -5.4035 -9.10561 -12.5862 0 0 0
233 69 4 0.417 -5.20949 -8.38052 -11.9922 0 0 0
234 69 4 0.417 -4.56419 -9.5505 -12.704 0 0 0
235 70 12 -0.834 -7.56577 -8.60554 -18.7366 0 1 0
236 70 4 0.417 -6.61502 -8.54788 -18.8314 0 1 0
237 70 4 0.417 -7.88513 -8.77847 -19.6223 0 1 0
238 71 12 -0.834 9.29429 6.72966 -8.6797 0 0 0
239 71 4 0.417 9.52586 7.30858 -7.95343 0 0 0
240 71 4 0.417 -10.0611 6.54497 -9.11425 1 0 0
241 72 12 -0.834 1.10675 0.0759783 -11.591 0 0 0
242 72 4 0.417 1.81115 0.688201 -11.3783 0 0 0
243 72 4 0.417 0.308771 0.602505 -11.5438 0 0 0
244 73 12 -0.834 -9.53831 -5.63807 -10.7295 0 0 0
245 73 4 0.417 -9.54392 -6.24695 -9.99097 0 0 0
246 73 4 0.417 -9.92866 -4.83601 -10.3823 0 0 0
247 74 12 -0.834 -4.29495 -6.22191 -17.3504 0 0 0
248 74 4 0.417 -4.16572 -6.85046 -16.6402 0 0 0
249 74 4 0.417 -4.91566 -5.5847 -16.997 0 0 0
250 75 12 -0.834 6.54463 6.79092 -2.44815 0 -1 0
251 75 4 0.417 5.80118 7.07621 -2.9793 0 -1 0
252 75 4 0.417 6.40324 5.85271 -2.32167 0 -1 0
253 76 12 -0.834 -4.41539 -7.27594 -10.7887 0 0 0
254 76 4 0.417 -3.94424 -7.1581 -11.6136 0 0 0
255 76 4 0.417 -4.8746 -6.44695 -10.6541 0 0 0
256 77 12 -0.834 9.37695 3.61865 -7.58059 -1 0 0
257 77 4 0.417 8.48599 3.96772 -7.60439 -1 0 0
258 77 4 0.417 9.36838 2.98777 -6.86077 -1 0 0
259 78 12 -0.834 -1.01308 -5.12753 -9.02268 0 0 0
260 78 4 0.417 -1.02564 -5.55564 -9.87871 0 0 0
261 78 4 0.417 -0.168639 -4.67788 -8.99159 0 0 0
262 79 12 -0.834 3.36631 -7.05189 -15.1545 0 0 0
263 79 4 0.417 3.30251 -6.43079 -15.88 0 0 0
264 79 4 0.417 3.77341 -6.55278 -14.4464 0 0 0
265 80 12 -0.834 5.48032 -9.96389 -3.89116 0 0 0
266 80 4 0.417 6.06878 -9.33429 -4.30777 0 0 0
267 80 4 0.417 5.97292 9.19542 -3.88424 0 -1 0
268 81 12 -0.834 5.25838 -6.19326 -17.2681 0 0 0
269 81 4 0.417 5.75651 -5.55971 -16.7516 0 0 0
270 81 4 0.417 5.75047 -6.27697 -18.0848 0 0 0
271 82 12 -0.834 5.2534 -1.49212 -12.2553 0 0 0
272 82 4 0.417 4.47238 -1.69392 -12.7706 0 0 0
273 82 4 0.417 5.90514 -2.12921 -12.5479 0 0 0
274 83 12 -0.834 4.81253 8.01716 18.8587 0 -1 -1
275 83 4 0.417 4.66629 7.67302 19.7399 0 -1 -1
276 83 4 0.417 3.94494 8.2906 18.5608 0 -1 -1
277 84 12 -0.834 7.28972 -0.00423879 -7.19274 0 0 0
278 84 4 0.417 7.16011 -0.355289 -8.07376 0 0 0
279 84 4 0.417 7.00978 0.90901 -7.2547 0 0 0
280 85 12 -0.834 6.33332 6.55992 -11.4989 0 -1 0
281 85 4 0.417 5.98779 7.44383 -11.6236 0 -1 0
282 85 4 0.417 7.02794 6.47939 -12.1526 0 -1 0
283 86 12 -0.834 -8.46543 -2.25839 -10.8222 0 0 0
284 86 4 0.417 -7.93 -2.60622 -10.1091 0 0 0
285 86 4 0.417 -7.89754 -2.30112 -11.5916 0 0 0
286 87 12 -0.834 -1.62508 -1.91426 -15.8754 0 0 0
287 87 4 0.417 -2.42651 -2.41798 -16.0175 0 0 0
288 87 4 0.417 -1.55342 -1.35416 -16.6483 0 0 0
289 88 12 -0.834 -8.28335 -0.268098 -8.8934 0 0 0
290 88 4 0.417 -8.65644 0.548946 -9.22426 0 0 0
291 88 4 0.417 -8.35352 -0.878516 -9.62735 0 0 0
292 89 12 -0.834 0.925642 -2.75084 -15.457 0 0 0
293 89 4 0.417 0.993326 -3.18521 -16.3073 0 0 0
294 89 4 0.417 0.164398 -2.17662 -15.5408 0 0 0
295 90 12 -0.834 5.92314 -4.81369 -10.7002 0 0 0
296 90 4 0.417 6.27115 -5.673 -10.9383 0 0 0
297 90 4 0.417 6.58771 -4.19389 -11.0009 0 0 0
298 91 12 -0.834 2.53614 -4.84033 18.7026 0 0 -1
299 91 4 0.417 3.13992 -5.55214 18.9147 0 0 -1
300 91 4 0.417 1.7474 -5.0359 19.2085 0 0 -1
301 92 12 -0.834 7.27269 2.44843 -4.94828 0 0 0
302 92 4 0.417 6.84969 1.66501 -4.59677 0 0 0
303 92 4 0.417 8.20555 2.31235 -4.7825 0 0 0
304 93 12 -0.834 7.07267 -1.66411 20.2741 0 0 -1
305 93 4 0.417 6.39949 -1.18182 19.7941 0 0 -1
306 93 4 0.417 7.16737 -1.1874 -20.3752 0 0 0
307 94 12 -0.834 7.00042 -1.07346 -9.66333 0 0 0
308 94 4 0.417 7.38854 -0.32422 -10.1153 0 0 0
309 94 4 0.417 6.10297 -1.11442 -9.99367 0 0 0
310 95 12 -0.834 7.75056 -7.6448 -3.50697 0 1 0
311 95 4 0.417 8.08719 -7.35641 -2.65859 0 1 0
312 95 4 0.417 8.35325 -8.3357 -3.78203 0 1 0
313 96 12 -0.834 9.18458 9.7861 -18.646 -1 -1 0
314 96 4 0.417 8.98491 8.85057 -18.612 -1 -1 0
315 96 4 0.417 8.32859 -9.76692 -18.6807 -1 0 0
316 97 12 -0.834 8.08943 5.88482 -13.7204 0 0 0
317 97 4 0.417 8.96461 6.26938 -13.6714 0 0 0
318 97 4 0.417 8.24288 4.96665 -13.9433 0 0 0
319 98 12 -0.834 4.90928 6.33462 -6.58793 0 0 0
320 98 4 0.417 4.63467 5.45584 -6.84976 0 0 0
321 98 4 0.417 5.76472 6.20657 -6.17798 0 0 0
322 99 12 -0.834 -4.4808 6.62422 -17.1895 0 0 0
323 99 4 0.417 -3.89764 6.75524 -17.9371 0 0 0
324 99 4 0.417 -5.33201 6.94216 -17.4905 0 0 0
325 100 12 -0.834 -6.93662 -2.96602 -8.68218 1 0 0
326 100 4 0.417 -7.66123 -3.2165 -8.1091 1 0 0
327 100 4 0.417 -6.16937 -3.39075 -8.29854 1 0 0
328 101 12 -0.834 2.36657 -5.53191 -11.5656 0 0 0
329 101 4 0.417 3.08892 -5.81662 -12.1255 0 0 0
330 101 4 0.417 1.73451 -5.14169 -12.1693 0 0 0
331 102 12 -0.834 9.7833 4.66743 -20.0534 0 0 0
332 102 4 0.417 9.15105 4.16069 -20.5631 0 0 0
333 102 4 0.417 9.40305 4.71293 -19.1762 0 0 0
334 103 12 -0.834 -8.95726 -5.09664 -7.30489 0 0 0
335 103 4 0.417 -9.8629 -5.16974 -7.60604 0 0 0
336 103 4 0.417 -8.51902 -5.86348 -7.67386 0 0 0
337 104 12 -0.834 0.0900707 3.36323 -12.8196 0 0 0
338 104 4 0.417 0.514423 3.79654 -13.5602 0 0 0
339 104 4 0.417 0.0699871 4.02848 -12.1317 0 0 0
340 105 12 -0.834 2.13692 2.5644 -6.34798 0 0 0
341 105 4 0.417 3.02864 2.80656 -6.09811 0 0 0
342 105 4 0.417 1.63718 3.37721 -6.27163 0 0 0
343 106 12 -0.834 -4.31961 7.32212 -14.3503 0 0 0
344 106 4 0.417 -4.19441 7.20708 -15.2923 0 0 0
345 106 4 0.417 -4.96489 8.02542 -14.2781 0 0 0
346 107 12 -0.834 3.20364 -1.28114 -18.3918 -1 0 0
347 107 4 0.417 4.15675 -1.20397 -18.435 -1 0 0
348 107 4 0.417 2.95605 -0.769298 -17.6218 -1 0 0
349 108 12 -0.834 6.60028 -3.45238 -13.4138 -1 0 0
350 108 4 0.417 6.49146 -3.42515 -14.3644 -1 0 0
351 108 4 0.417 7.37493 -2.91592 -13.2454 -1 0 0
352 109 12 -0.834 1.73229 -1.76759 -2.51913 0 0 0
353 109 4 0.417 2.14163 -1.63886 -1.6635 0 0 0
354 109 4 0.417 2.45736 -1.71752 -3.14202 0 0 0
355 110 12 -0.834 1.80287 -3.58467 -17.8622 0 0 0
356 110 4 0.417 2.13506 -2.73982 -18.1657 0 0 0
357 110 4 0.417 2.20684 -4.22557 -18.4473 0 0 0
358 111 12 -0.834 2.83286 8.48434 -7.01493 0 0 0
359 111 4 0.417 3.00617 8.76618 -7.91313 0 0 0
360 111 4 0.417 3.44746 7.76578 -6.86605 0 0 0
361 112 12 -0.834 -1.83284 2.27133 16.4334 0 0 -1
362 112 4 0.417 -1.40497 3.09787 16.2098 0 0 -1
363 112 4 0.417 -1.23294 1.59676 16.1151 0 0 -1
364 113 12 -0.834 3.72268 -6.47684 -1.9561 0 0 0
365 113 4 0.417 3.15142 -5.84121 -2.38722 0 0 0
366 113 4 0.417 4.27641 -5.94985 -1.38 0 0 0
367 114 12 -0.834 0.37558 8.09428 1.13936 0 -1 0
368 114 4 0.417 -0.514859 8.38609 1.3348 0 -1 0
369 114 4 0.417 0.433946 7.22283 1.53102 0 -1 0
370 115 12 -0.834 -0.361147 0.482626 18.7405 0 0 -1
371 115 4 0.417 -0.343509 0.587155 17.7891 0 0 -1
372 115 4 0.417 -0.236565 -0.455952 18.8811 0 0 -1
373 116 12 -0.834 -5.18391 -1.27944 14.5608 0 0 -1
374 116 4 0.417 -4.8272 -2.14275 14.3518 0 0 -1
375 116 4 0.417 -6.12849 -1.4196 14.6267 0 0 -1
376 117 12 -0.834 2.6049 9.44846 -11.9299 0 -1 0
377 117 4 0.417 2.84754 9.12765 -12.7985 0 -1 0
378 117 4 0.417 2.41636 -9.60234 -12.0613 0 0 0
379 118 12 -0.834 -0.167282 -6.85385 -19.7621 0 0 0
380 118 4 0.417 -1.0282 -6.44661 -19.6662 0 0 0
381 118 4 0.417 0.387838 -6.3924 -19.1335 0 0 0
382 119 12 -0.834 9.23632 -2.45098 -18.8539 -1 0 0
383 119 4 0.417 9.47725 -1.68865 -19.3803 -1 0 0
384 119 4 0.417 8.30309 -2.3344 -18.6758 -1 0 0
385 120 12 -0.834 -8.78607 -5.19716 -15.8707 0 0 0
386 120 4 0.417 -8.88142 -4.47746 -15.2468 0 0 0
387 120 4 0.417 -9.18464 -5.94903 -15.4324 0 0 0
388 121 12 -0.834 -1.08989 1.71931 -11.0724 0 0 0
389 121 4 0.417 -0.601548 2.014 -10.3036 0 0 0
390 121 4 0.417 -0.812369 2.30889 -11.7735 0 0 0
391 122 12 -0.834 -5.58357 -5.93736 -14.0231 0 0 0
392 122 4 0.417 -5.85959 -6.75868 -14.4298 0 0 0
393 122 4 0.417 -6.37732 -5.59417 -13.6127 0 0 0
394 123 12 -0.834 -0.782277 -0.825882 -18.1705 0 0 0
395 123 4 0.417 -0.428015 0.0300122 -17.9293 0 0 0
396 123 4 0.417 -0.0467033 -1.28424 -18.5768 0 0 0
397 124 12 -0.834 7.48007 8.14474 -0.12142 -1 0 0
398 124 4 0.417 7.19269 7.87196 -0.99276 -1 0 0
399 124 4 0.417 8.15487 8.80325 -0.286496 -1 0 0
400 125 12 -0.834 -7.83544 2.10721 4.88585 0 0 0
401 125 4 0.417 -7.33517 1.38386 4.50807 0 0 0
402 125 4 0.417 -7.17123 2.73046 5.18013 0 0 0
403 126 12 -0.834 -0.989234 4.10399 -19.4746 0 0 0
404 126 4 0.417 -1.47995 3.48051 -20.01 0 0 0
405 126 4 0.417 -0.816864 3.63542 -18.6579 0 0 0
406 127 12 -0.834 0.516056 5.42714 -11.0276 0 0 0
407 127 4 0.417 0.110873 5.64375 -10.1879 0 0 0
408 127 4 0.417 0.547789 6.25882 -11.5004 0 0 0
409 128 12 -0.834 2.14204 1.60556 -19.0332 0 0 0
410 128 4 0.417 2.62964 0.832149 -19.3167 0 0 0
411 128 4 0.417 2.41673 1.74357 -18.1268 0 0 0
412 129 12 -0.834 6.34073 4.23423 1.18837 -1 0 0
413 129 4 0.417 7.13101 4.77404 1.20527 -1 0 0
414 129 4 0.417 6.31827 3.86923 0.303783 -1 0 0
415 130 12 -0.834 -7.39662 5.63807 12.5024 0 0 -1
416 130 4 0.417 -7.63696 5.53401 13.4231 0 0 -1
417 130 4 0.417 -6.44647 5.75349 12.514 0 0 -1
418 131 12 -0.834 -0.201393 8.57095 -5.73385 0 0 0
419 131 4 0.417 -0.180298 9.16901 -6.48092 0 0 0
420 131 4 0.417 0.577005 8.79597 -5.22424 0 0 0
421 132 12 -0.834 -5.82779 -4.90252 -10.9106 0 0 0
422 132 4 0.417 -6.62276 -5.10545 -11.4036 0 0 0
423 132 4 0.417 -5.47204 -4.12385 -11.3388 0 0 0
424 133 12 -0.834 -8.53467 4.50001 -5.94809 1 0 0
425 133 4 0.417 -8.8865 3.61106 -5.99503 1 0 0
426 133 4 0.417 -8.55508 4.81423 -6.85201 1 0 0
427 134 12 -0.834 -3.88807 8.72545 -9.56486 0 0 0
428 134 4 0.417 -2.96907 8.46885 -9.64127 0 0 0
429 134 4 0.417 -4.01179 8.89972 -8.63182 0 0 0
430 135 12 -0.834 6.45619 -3.58471 -16.2156 -1 0 0
431 135 4 0.417 7.05313 -3.96113 -16.8623 -1 0 0
432 135 4 0.417 6.02069 -2.86919 -16.6789 -1 0 0
433 136 12 -0.834 8.23905 -2.50763 -6.78008 0 0 0
434 136 4 0.417 8.14083 -1.56195 -6.89087 0 0 0
435 136 4 0.417 7.55308 -2.88621 -7.32995 0 0 0
436 137 12 -0.834 1.16496 0.577103 11.3375 0 0 -1
437 137 4 0.417 1.988 0.0906222 11.2909 0 0 -1
438 137 4 0.417 0.93413 0.746392 10.4241 0 0 -1
439 138 12 -0.834 1.44398 -7.54053 -7.62453 0 0 0
440 138 4 0.417 1.90092 -7.35776 -6.80353 0 0 0
441 138 4 0.417 2.05499 -7.26156 -8.30649 0 0 0
442 139 12 -0.834 1.66742 -4.77327 -3.11056 0 0 0
443 139 4 0.417 1.40308 -3.86382 -2.97182 0 0 0
444 139 4 0.417 0.949605 -5.29027 -2.74493 0 0 0
445 140 12 -0.834 -1.71631 0.363147 -14.097 0 0 0
446 140 4 0.417 -1.90896 -0.489256 -14.4876 0 0 0
447 140 4 0.417 -1.85211 0.233299 -13.1585 0 0 0
448 141 12 -0.834 0.344981 2.27732 -8.90865 0 0 0
449 141 4 0.417 1.18195 1.96387 -9.25138 0 0 0
450 141 4 0.417 0.58436 2.87353 -8.19909 0 0 0
451 142 12 -0.834 -8.01578 -2.92562 -0.119799 1 0 0
452 142 4 0.417 -7.57377 -3.32987 0.626816 1 0 0
453 142 4 0.417 -7.41659 -3.05874 -0.854292 1 0 0
454 143 12 -0.834 -1.04367 -0.902103 -4.76496 0 0 0
455 143 4 0.417 -0.538648 -1.59032 -5.19802 0 0 0
456 143 4 0.417 -1.92694 -0.991252 -5.12288 0 0 0
457 144 12 -0.834 5.95175 -3.75984 -8.08574 0 0 0
458 144 4 0.417 6.07816 -4.15689 -8.94748 0 0 0
459 144 4 0.417 5.06023 -3.41223 -8.11011 0 0 0
460 145 12 -0.834 -3.81113 -1.35104 -4.92091 0 0 0
461 145 4 0.417 -3.85311 -2.29022 -4.74089 0 0 0
462 145 4 0.417 -4.70602 -1.04018 -4.78395 0 0 0
463 146 12 -0.834 -0.622822 6.02651 -4.44738 0 -1 0
464 146 4 0.417 -1.36149 6.00854 -5.05588 0 -1 0
465 146 4 0.417 -0.285789 6.92054 -4.50541 0 -1 0
466 147 12 -0.834 -2.8242 -6.65021 -4.43792 0 0 0
467 147 4 0.417 -2.87025 -7.58492 -4.23684 0 0 0
468 147 4 0.417 -2.10469 -6.57472 -5.06469 0 0 0
469 148 12 -0.834 -6.08013 -3.76938 -1.97747 0 0 0
470 148 4 0.417 -5.66749 -3.05377 -1.49389 0 0 0
471 148 4 0.417 -5.45367 -3.98471 -2.66842 0 0 0
472 149 12 -0.834 -7.44193 -9.29111 -8.71193 0 0 0
473 149 4 0.417 -7.09597 -9.94294 -9.32157 0 0 0
474 149 4 0.417 -6.71678 -8.68134 -8.57559 0 0 0
475 150 12 -0.834 -8.46843 2.06229 17.6459 0 1 -1
476 150 4 0.417 -7.8148 2.18585 16.9576 0 1 -1
477 150 4 0.417 -8.85094 1.20425 17.4624 0 1 -1
478 151 12 -0.834 3.99582 0.0343622 18.8118 -1 0 -1
479 151 4 0.417 3.13391 -0.366064 18.9258 -1 0 -1
480 151 4 0.417 3.81656 0.872494 18.3856 -1 0 -1
481 152 12 -0.834 -6.02775 -1.5976 -12.2308 0 0 0
482 152 4 0.417 -5.24975 -1.40351 -12.7535 0 0 0
483 152 4 0.417 -5.81923 -1.26534 -11.3576 0 0 0
484 153 12 -0.834 -6.17444 5.73356 0.102547 1 0 0
485 153 4 0.417 -6.31349 5.2344 -0.702274 1 0 0
486 153 4 0.417 -6.85189 6.4096 0.0857257 1 0 0
487 154 12 -0.834 9.27221 -9.14761 -12.232 0 1 0
488 154 4 0.417 8.68924 -9.39003 -12.9514 0 1 0
489 154 4 0.417 8.88643 -9.56231 -11.4604 0 1 0
490 155 12 -0.834 0.740534 2.72829 2.4498 0 0 0
491 155 4 0.417 0.339585 2.70747 3.31873 0 0 0
492 155 4 0.417 0.00302444 2.65978 1.84349 0 0 0
493 156 12 -0.834 -8.96502 -1.86146 -16.8399 1 0 0
494 156 4 0.417 -9.60674 -2.2444 -17.4381 1 0 0
495 156 4 0.417 -9.06238 -0.916381 -16.9565 1 0 0
496 157 12 -0.834 8.37505 -5.8366 -14.6082 0 0 0
497 157 4 0.417 7.64538 -5.54474 -14.0618 0 0 0
498 157 4 0.417 8.50843 -6.75184 -14.3617 0 0 0
499 158 12 -0.834 -2.53791 -0.609939 -11.6209 1 0 0
500 158 4 0.417 -2.45466 0.211955 -11.1374 1 0 0
501 158 4 0.417 -2.393 -1.2907 -10.9638 1 0 0
502 159 12 -0.834 -8.36974 5.39514 -12.5223 1 0 0
503 159 4 0.417 -8.29028 6.17045 -11.9666 1 0 0
504 159 4 0.417 -7.46691 5.15886 -12.7351 1 0 0
505 160 12 -0.834 6.64217 7.46156 -19.1478 0 -1 0
506 160 4 0.417 6.2898 6.58757 -19.3157 0 -1 0
507 160 4 0.417 5.87048 8.02548 -19.0956 0 -1 0
508 161 12 -0.834 -9.72674 -0.230053 -20.1005 1 -1 0
509 161 4 0.417 -8.98355 -0.818241 -20.2344 1 -1 0
510 161 4 0.417 -9.91045 0.126239 20.5043 1 -1 -1
511 162 12 -0.834 -0.705664 -2.3045 19.4291 0 0 -1
512 162 4 0.417 -1.60799 -2.46725 19.1543 0 0 -1
513 162 4 0.417 -0.561184 -2.915 20.1521 0 0 -1
514 163 12 -0.834 -5.2928 -5.32414 -8.29453 0 0 0
515 163 4 0.417 -5.27242 -6.27041 -8.15174 0 0 0
516 163 4 0.417 -5.69642 -5.22009 -9.15621 0 0 0
517 164 12 -0.834 5.49482 0.609381 -2.02029 0 0 0
518 164 4 0.417 5.74725 0.216154 -2.85569 0 0 0
519 164 4 0.417 6.2973 1.01718 -1.69479 0 0 0
520 165 12 -0.834 8.41466 -5.61576 -7.80555 0 0 0
521 165 4 0.417 7.6109 -5.63834 -8.32487 0 0 0
522 165 4 0.417 8.35431 -4.80199 -7.30519 0 0 0
523 166 12 -0.834 2.07802 4.456 -19.5073 0 -1 0
524 166 4 0.417 2.1217 3.50466 -19.6036 0 -1 0
525 166 4 0.417 1.17317 4.67813 -19.7267 0 -1 0
526 167 12 -0.834 -0.247448 1.74385 -17.3101 0 0 0
527 167 4 0.417 -0.352466 2.66654 -17.0781 0 0 0
528 167 4 0.417 0.430738 1.42262 -16.7159 0 0 0
529 168 12 -0.834 8.30329 -9.49694 -14.8319 0 0 0
530 168 4 0.417 7.62832 -9.30573 -15.4831 0 0 0
531 168 4 0.417 8.71404 9.67595 -15.1418 0 -1 0
532 169 12 -0.834 -3.43761 -0.719408 -7.68622 1 0 0
533 169 4 0.417 -3.73667 -0.809786 -6.78144 1 0 0
534 169 4 0.417 -3.17098 -1.60293 -7.94023 1 0 0
535 170 12 -0.834 -9.71678 1.5197 1.35925 0 0 0
536 170 4 0.417 -8.91215 1.34113 1.84598 0 0 0
537 170 4 0.417 -9.51065 2.28946 0.828955 0 0 0
538 171 12 -0.834 9.75377 8.57644 -6.85946 0 -1 0
539 171 4 0.417 9.69766 9.4885 -7.14448 0 -1 0
540 171 4 0.417 -9.56569 8.50155 -6.46415 1 -1 0
541 172 12 -0.834 -7.02415 3.6076 -10.5049 1 -1 0
542 172 4 0.417 -6.54581 4.24075 -11.0402 1 -1 0
543 172 4 0.417 -6.50088 2.80762 -10.5544 1 -1 0
544 173 12 -0.834 -0.719515 -6.44292 -6.42294 0 0 0
545 173 4 0.417 -0.282697 -7.09806 -6.96718 0 0 0
546 173 4 0.417 -1.19912 -5.89554 -7.0447 0 0 0
547 174 12 -0.834 -4.11743 -3.92226 -15.5216 0 0 0
548 174 4 0.417 -4.85399 -3.3182 -15.4276 0 0 0
549 174 4 0.417 -4.22461 -4.54512 -14.8027 0 0 0
550 175 12 -0.834 0.55134 -1.9948 -6.64939 0 0 0
551 175 4 0.417 1.24728 -2.64852 -6.71685 0 0 0
552 175 4 0.417 0.233999 -1.8887 -7.5462 0 0 0
553 176 12 -0.834 -3.16045 2.82966 -14.2062 1 -1 0
554 176 4 0.417 -2.59824 2.09788 -14.4604 1 -1 0
555 176 4 0.417 -3.45807 3.20315 -15.0357 1 -1 0
556 177 12 -0.834 -5.06246 -7.7846 18.1077 0 0 -1
557 177 4 0.417 -5.52209 -7.17877 18.689 0 0 -1
558 177 4 0.417 -5.69541 -7.98133 17.4171 0 0 -1
559 178 12 -0.834 -4.978 -9.82522 -16.5271 1 1 0
560 178 4 0.417 -4.8474 -9.43274 -17.3904 1 1 0
561 178 4 0.417 -5.61364 -9.25316 -16.0971 1 1 0
562 179 12 -0.834 -9.64646 -1.46251 -3.22767 0 0 0
563 179 4 0.417 -8.7841 -1.30067 -2.84508 0 0 0
564 179 4 0.417 -9.4619 -1.8978 -4.05995 0 0 0
565 180 12 -0.834 7.45499 5.26607 -5.24453 -1 0 0
566 180 4 0.417 8.30971 5.61899 -4.99727 -1 0 0
567 180 4 0.417 7.60585 4.32732 -5.35511 -1 0 0
568 181 12 -0.834 -0.365309 1.82589 -4.94671 0 0 0
569 181 4 0.417 -0.3017 0.87136 -4.91411 0 0 0
570 181 4 0.417 -0.518708 2.02477 -5.87037 0 0 0
571 182 12 -0.834 -1.5159 6.23609 -1.22063 0 0 0
572 182 4 0.417 -1.92551 5.87836 -0.432931 0 0 0
573 182 4 0.417 -2.07099 6.97677 -1.46454 0 0 0