ITEM: TIMESTEP
40000
ITEM: NUMBER OF ATOMS
1542
ITEM: BOX BOUNDS pp pp pp
-1.0093999999999999e+01 1.0093999999999999e+01
-9.9900000000000002e+00 9.9900000000000002e+00
-1.8332088665163752e+01 1.8332088665163752e+01
ITEM: ATOMS id type element mass x y z vx vy vz ix iy iz
1489 12 C 15.999 -6.96347 -4.89601 -17.0522 -0.00544893 -0.0056435 0.0023779 0 0 1
1490 4 C 1.008 -6.03538 -5.09006 -17.1835 -0.00358901 0.0180408 -0.0194595 0 0 1
392 4 C 1.008 -5.38229 -0.232761 -11.3676 -0.0287427 0.00116959 -0.00508262 0 0 0
381 4 C 1.008 -0.764288 -3.25003 -14.3793 -0.0142306 0.00544597 -0.00243737 0 0 0
537 4 C 1.008 -0.705138 -7.80525 -14.4665 -0.00960192 0.0117268 -0.0147824 0 0 0
535 12 C 15.999 -1.49029 -8.33349 -14.6105 -0.00512933 0.00149567 -0.00160797 0 0 0
610 12 C 15.999 -6.8859 -0.68161 -14.958 0.00450212 -0.00155629 -0.00322217 0 0 0
612 4 C 1.008 -7.26469 -1.4205 -15.4342 0.0218739 -0.00892486 -0.00566506 0 0 0
31 12 C 15.999 -4.24918 0.0770274 -15.1906 -0.00162712 -0.0016947 -0.0018145 0 0 0
1413 4 C 1.008 -7.85722 -3.72927 -13.2618 0.0161961 -0.0288636 -0.00570863 0 -1 1
1411 12 C 15.999 -8.25669 -4.05963 -12.4573 0.000493477 0.00362274 -3.16288e-05 0 -1 1
1412 4 C 1.008 -7.53656 -4.47928 -11.9867 -0.0156829 -0.00694974 0.0154101 0 -1 1
32 4 C 1.008 -4.21344 1.03348 -15.1783 -0.0108145 -0.00123216 -0.0114979 0 0 0
611 4 C 1.008 -6.12575 -0.424195 -15.4796 0.00447622 0.0113695 0.00302006 0 0 0
36 4 C 1.008 -5.20028 1.88261 -12.9178 -0.0152554 -0.00494673 -0.00842894 0 0 0
1500 4 C 1.008 -4.45776 -2.7768 -13.6547 -0.00946754 -0.0328188 -0.00339712 0 0 1
147 4 C 1.008 -3.18216 -7.31911 -14.8491 4.8905e-05 0.00524337 -0.000339541 0 0 0
145 12 C 15.999 -3.89138 -6.70022 -14.6753 0.00180479 0.00499489 0.00777916 0 0 0
1535 4 C 1.008 -1.36738 -0.637413 -12.5205 0.00627024 0.00526969 0.00545794 0 0 1
1534 12 C 15.999 -1.46718 0.194476 -12.9833 0.0111214 0.00470407 0.00331565 0 0 1
651 4 C 1.008 -5.36481 -5.79422 -12.2666 -0.0181307 -0.00395308 0.0198107 1 0 0
1498 12 C 15.999 -5.37358 -2.66475 -13.3998 -0.00383809 0.00274934 0.0011413 0 0 1
379 12 C 15.999 -0.596282 -3.46099 -15.2976 -0.00578254 0.00170285 -0.000197018 0 0 0
146 4 C 1.008 -4.26431 -6.99019 -13.8429 -0.000968267 -0.00664862 0.00263273 0 0 0
655 12 C 15.999 -3.3122 -4.10951 -14.6827 0.00225946 0.00891226 -0.004191 0 0 0
657 4 C 1.008 -2.35513 -4.11498 -14.6978 0.00172974 -0.00615661 -0.0320993 0 0 0
656 4 C 1.008 -3.55452 -5.01715 -14.4992 -0.00713619 0.00761047 -0.0230357 0 0 0
1499 4 C 1.008 -5.67279 -1.90932 -13.9058 0.0245956 0.017731 0.0066229 0 0 1
280 12 C 15.999 0.649353 -8.07977 17.2902 -0.00020761 0.00296924 0.00138286 0 0 -1
1536 4 C 1.008 -1.49645 0.853176 -12.2895 -0.0069865 0.00453138 0.00282744 0 0 1
171 4 C 1.008 -10.042 -3.07539 -12.0116 -0.000386578 0.00154987 0.0231726 0 0 0
169 12 C 15.999 9.21979 -3.30802 -12.0768 0.00218364 -0.00265831 0.00109723 -1 0 0
1426 12 C 15.999 -8.53011 -3.37459 -15.3014 -0.00444393 -0.00511999 -0.00366653 0 0 1
1108 12 C 15.999 -4.83738 -2.86426 -16.5676 0.00166673 -0.00135214 0.0013016 0 0 1
1427 4 C 1.008 -9.1069 -3.13922 -16.028 -0.0053598 0.0280548 0.00774964 0 0 1
1428 4 C 1.008 -7.77987 -3.79856 -15.718 -0.0155687 -0.00647299 -0.0223253 0 0 1
1491 4 C 1.008 -7.4003 -5.29087 -17.8067 -0.00981243 0.0100398 -0.00339264 0 0 1
282 4 C 1.008 1.30512 -7.38289 17.3139 0.00629319 -0.00309245 -8.06425e-05 0 0 -1
1516 12 C 15.999 -1.3115 0.523315 -15.6556 -0.00153718 0.0103179 -0.000763388 0 -1 1
1518 4 C 1.008 -1.3659 0.365228 -14.7132 -0.0101633 0.00560606 -0.0018902 0 -1 1
483 4 C 1.008 -7.95096 -7.84284 -16.4535 -0.0102732 -0.0232936 0.00847235 0 1 0
193 12 C 15.999 -0.458099 -3.06391 -12.5052 0.00456714 0.00636334 -0.00516695 0 0 0
519 4 C 1.008 -1.35538 -1.28592 -10.2573 0.000342893 -0.0185058 0.00610638 0 0 0
394 12 C 15.999 -6.57981 -8.26914 -17.3444 -0.00181161 0.00165927 0.00293954 0 0 0
281 4 C 1.008 0.729384 -8.4549 16.4134 0.00395424 -0.00695113 0.0058487 0 0 -1
170 4 C 1.008 9.20219 -4.25797 -11.9606 0.00347604 -0.0023934 0.00351423 -1 0 0
1517 4 C 1.008 -0.452714 0.183286 -15.9067 -0.00119884 0.00724327 0.00451149 0 -1 1
517 12 C 15.999 -0.521823 -0.983971 -10.6181 -0.0100362 -0.00266453 -0.00467867 0 0 0
649 12 C 15.999 -5.23055 -6.74111 -12.3066 0.00110493 -0.000277418 -0.00253642 1 0 0
650 4 C 1.008 -5.06419 -6.99844 -11.3999 0.000452049 -0.0191422 -0.00762213 1 0 0
323 4 C 1.008 -1.01753 -8.49544 -18.2773 0.00235257 0.0125471 -0.0112643 0 1 0
560 4 C 1.008 9.58193 0.532507 -15.6092 0.000439844 0.0166351 -0.010857 0 0 0
482 4 C 1.008 -8.30699 -6.66782 -15.568 0.0113275 -3.85344e-05 -0.0135483 0 1 0
481 12 C 15.999 -8.69514 -7.32689 -16.1434 0.000295476 0.00252077 -0.00914017 0 1 0
51 4 C 1.008 -2.92726 -0.0198222 -8.88955 -0.000132727 -0.0132536 0.0101783 0 0 0
194 4 C 1.008 -0.562118 -3.57529 -11.7029 -0.0164086 0.00462509 -0.00887593 0 0 0
1347 4 C 1.008 -8.41962 -2.67566 17.9836 -0.013955 0.0222476 0.0170965 1 0 0
713 4 C 1.008 9.87516 -6.74697 -16.0997 -0.00759208 -0.00235664 -0.0177247 -1 1 0
195 4 C 1.008 0.0323294 -2.2881 -12.2335 -0.00369989 0.0064075 0.0096176 0 0 0
536 4 C 1.008 -1.54283 -8.90011 -13.8409 0.0130944 0.00344406 0.00118808 0 0 0
567 4 C 1.008 9.95803 -9.61301 -13.1707 0.0214578 0.00155774 -0.00473375 -1 1 0
623 4 C 1.008 -7.85767 -8.27104 -13.1876 0.0121196 0.00978923 -0.0249777 0 0 0
48 4 C 1.008 -8.68915 1.70269 -14.3401 0.0154769 -0.00237913 -0.00591742 0 0 0
46 12 C 15.999 -9.05896 0.929259 -14.7658 0.00228014 0.00347433 -0.00516886 0 0 0
47 4 C 1.008 -8.34615 0.290402 -14.7639 -0.0110427 -0.0113588 0.00245237 0 0 0
1109 4 C 1.008 -4.19181 -2.92492 -17.2716 0.00488086 0.00991735 0.00314434 0 0 1
1110 4 C 1.008 -4.53605 -3.49219 -15.9111 0.00521776 -0.00321245 -0.00198979 0 0 1
116 4 C 1.008 -3.30585 -5.88705 -17.6129 0.00089206 0.00455824 0.0115868 0 0 0
115 12 C 15.999 -4.19985 -6.19591 -17.466 0.0014159 -0.00138304 0.0023494 0 0 0
117 4 C 1.008 -4.32955 -6.11472 -16.5212 0.000131661 -0.0268953 0.00447126 0 0 0
188 4 C 1.008 -3.6333 -1.51464 18.3131 -0.00140004 -0.00452251 0.0111682 0 0 -1
1537 12 C 15.999 -1.573 -5.12697 -17.532 0.000870013 -0.000720242 -0.000737254 0 0 1
1539 4 C 1.008 -0.908962 -4.65887 -18.038 -0.00586883 0.0151429 0.0049328 0 0 1
1538 4 C 1.008 -1.22328 -5.15074 -16.6414 -0.0105275 0.0157287 0.00432255 0 0 1
396 4 C 1.008 -5.75739 -7.91681 -17.6845 0.00536362 -0.0252885 -0.007634 0 0 0
380 4 C 1.008 0.334724 -3.27534 -15.42 0.00100135 -0.0230863 0.0141856 0 0 0
126 4 C 1.008 1.02623 -6.31092 -14.7047 0.0181793 0.00106141 -0.00388598 0 0 0
374 4 C 1.008 -0.00142991 -6.55186 -12.2768 0.0131027 0.0133625 -0.00185007 0 0 0
518 4 C 1.008 -0.395548 -0.115382 -10.2362 -0.0230684 0.000968959 -0.00854424 0 0 0
1453 12 C 15.999 7.13144 -1.39357 -12.6912 0.00327475 0.000994966 0.00105042 0 1 1
1454 4 C 1.008 8.05176 -1.54419 -12.4755 -0.00296854 -0.00644193 0.0226532 0 1 1
1455 4 C 1.008 6.6622 -2.10022 -12.2478 -0.0137907 0.0106198 -0.00156004 0 1 1
712 12 C 15.999 9.09861 -6.26383 -15.8173 -0.00321845 -0.00315131 -0.0042511 -1 1 0
1439 4 C 1.008 7.69134 -6.52567 -14.6461 0.00122662 -0.0191416 -0.00281822 0 0 1
72 4 C 1.008 5.37894 -4.18993 -11.792 0.011382 -0.010677 -0.00320683 -1 1 0
209 4 C 1.008 3.75157 -2.80758 17.7815 -0.015771 -0.0111971 0.00703739 0 0 -1
208 12 C 15.999 4.33856 -2.51958 -18.1837 -0.00126395 -0.00360001 -0.0081127 0 0 0
210 4 C 1.008 4.44168 -3.28957 -17.6246 -0.0167965 0.0123879 0.0168432 0 0 0
1422 4 C 1.008 5.83142 -7.92234 17.9433 -0.00139548 0.00926896 0.00837086 0 0 0
124 12 C 15.999 0.648046 -7.02286 -14.1887 0.00139472 0.0104544 -0.00314949 0 0 0
125 4 C 1.008 1.38173 -7.6147 -14.0224 -0.009946 -0.000513165 0.00785944 0 0 0
1420 12 C 15.999 6.59957 -7.40069 17.7108 0.00267135 -0.00141436 -0.00219189 0 0 0
1421 4 C 1.008 6.47192 -6.56898 18.167 0.0144996 0.00481863 -0.0101632 0 0 0
122 4 C 1.008 4.2389 -5.46729 -15.9986 0.0297298 0.0101361 0.0113803 0 0 0
213 4 C 1.008 3.54579 -9.56964 -14.5606 -0.00943946 -0.0100845 -0.0021595 0 0 0
211 12 C 15.999 2.76798 -9.09843 -14.8592 -0.00174556 0.0035793 -0.000597757 0 0 0
975 4 C 1.008 4.85126 -1.43669 -15.3569 -0.00524079 -0.015281 -0.0118789 0 0 1
790 12 C 15.999 6.20796 -9.1611 -14.6502 0.00331581 -0.000662272 0.0034033 0 1 1
792 4 C 1.008 6.66919 -8.33304 -14.5168 -0.00924995 0.00581913 0.00655199 0 1 1
973 12 C 15.999 5.12477 -2.19658 -14.8432 3.13567e-05 -0.00390512 0.00221662 0 0 1
315 4 C 1.008 7.12329 -4.29568 -17.3268 0.0116599 0.00337521 -0.012831 -1 0 0
974 4 C 1.008 5.57169 -1.82409 -14.0832 -0.0291027 0.0139382 0.0107448 0 0 1
686 4 C 1.008 4.84803 -6.72227 -14.2032 0.00429282 -0.000356757 -0.0205311 0 1 0
685 12 C 15.999 3.92945 -6.53364 -14.3952 -0.000613437 -0.00188918 0.00140285 0 1 0
373 12 C 15.999 0.351544 -6.53567 -11.3873 1.81397e-05 0.00018335 0.00372216 0 0 0
212 4 C 1.008 2.56212 -9.48907 -15.7084 -0.0109181 0.00661494 0.000102903 0 0 0
1438 12 C 15.999 6.88789 -6.44775 -14.1317 0.00295422 -0.000899097 -0.00278212 0 0 1
1440 4 C 1.008 7.16973 -6.05842 -13.3041 0.0110783 -0.00338903 -0.0042443 0 0 1
375 4 C 1.008 1.15635 -7.05127 -11.439 0.00112474 0.00150434 0.00776138 0 0 0
111 4 C 1.008 -1.17743 -1.25022 18.2998 -0.0110156 0.000455878 0.00785131 0 0 -1
308 4 C 1.008 2.80262 -3.10007 -15.6666 -0.0205189 0.0102235 -0.0167231 0 0 0
307 12 C 15.999 2.06235 -3.4257 -15.1546 -0.000845369 -0.00802137 0.000239737 0 0 0
309 4 C 1.008 2.06 -2.8844 -14.3653 -0.00583777 0.00249641 -0.00684507 0 0 0
123 4 C 1.008 5.36617 -5.03894 -16.9137 -0.00767858 -0.0125148 -0.0453829 0 0 0
121 12 C 15.999 4.41249 -5.10726 -16.8682 -0.0066886 0.0061942 0.0023197 0 0 0
54 4 C 1.008 6.65529 -2.42821 -15.8648 -0.00242672 -0.00427356 -0.00582088 0 0 0
1022 4 C 1.008 2.72455 -2.81799 -11.1953 -0.00890697 -0.0363983 0.0128364 0 0 0
313 12 C 15.999 7.0613 -5.24396 -17.4415 -0.0016609 0.00281773 -0.000997764 -1 0 0
109 12 C 15.999 -0.475754 -1.48305 -17.7565 0.00149517 0.00361793 -0.00526501 0 0 0
314 4 C 1.008 7.78395 -5.59629 -16.9221 -0.000305255 -0.000232457 -0.00486823 -1 0 0
581 4 C 1.008 3.88882 -3.15438 -13.3214 -0.0101728 0.00368135 -0.00462715 -1 1 0
580 12 C 15.999 3.66893 -3.90295 -12.767 0.00236719 4.74968e-05 -0.00447188 -1 1 0
594 4 C 1.008 9.11367 -2.69163 -16.8129 -0.00618082 -0.0027307 -0.0101567 -1 0 0
299 4 C 1.008 7.1202 8.52044 17.1804 -0.00800311 -0.0111492 0.0100994 0 -1 -1
1023 4 C 1.008 2.0075 -1.76075 -10.3831 0.0022838 -0.00369748 -0.0197612 0 0 0
714 4 C 1.008 9.44518 -5.47426 -15.4018 0.00343046 -0.00811338 -0.000307671 -1 1 0
298 12 C 15.999 8.00681 8.57569 17.5368 0.00048286 -8.7286e-05 -0.0126292 0 -1 -1
53 4 C 1.008 7.27162 -2.14652 -17.2183 -0.000822832 0.00177543 -0.00405293 0 0 0
52 12 C 15.999 7.43798 -2.5956 -16.3897 -0.000723281 0.000188779 -0.00479819 0 0 0
603 4 C 1.008 2.07506 -0.335395 -14.117 -0.00462424 -0.000375179 0.000341298 0 0 0
566 4 C 1.008 -9.96902 -8.18562 -13.6024 0.00773521 0.00210357 -0.0113144 0 1 0
687 4 C 1.008 3.506 -7.39197 -14.409 0.00102561 -0.00281943 0.00865805 0 1 0
582 4 C 1.008 3.74503 -4.66123 -13.3461 -0.0020766 0.00297331 -0.00897478 -1 1 0
1135 12 C 15.999 2.45685 -5.98764 18.0961 -9.64812e-05 0.00160668 0.00739495 0 0 0
1137 4 C 1.008 3.17043 -5.92534 -17.9332 0.00284172 -0.00680092 0.00503146 0 0 1
561 4 C 1.008 9.01623 -0.523941 -16.5341 0.00147925 0.00209538 0.00494177 0 0 0
1444 12 C 15.999 4.46131 -8.8553 18.182 0.00420964 -0.00284125 0.000210836 0 0 0
1445 4 C 1.008 3.5528 -9.11428 -18.328 0.00911769 -0.0214062 -0.00200793 0 0 1
1446 4 C 1.008 4.97253 -9.63698 -18.2728 0.0209552 0.0128091 0.017784 0 0 1
602 4 C 1.008 3.02415 -0.427285 -12.9413 0.0162764 0.000676142 -0.0162608 0 0 0
465 4 C 1.008 2.98981 -8.59893 -11.8044 0.0133343 0.000494353 -0.0300075 0 0 0
494 4 C 1.008 6.88717 0.25162 17.1289 0.00798409 -0.00950703 -0.0108391 0 0 -1
791 4 C 1.008 6.34978 -9.36869 -15.5736 -0.0323152 0.0283609 -0.00876202 0 1 1
464 4 C 1.008 2.32056 -9.40413 -12.8977 -0.0262071 -0.0119859 0.00323877 0 0 0
601 12 C 15.999 2.53105 -0.966122 -13.5599 -0.00391649 4.30467e-05 0.000329768 0 0 0
533 4 C 1.008 7.73179 1.15082 -14.5096 -0.00157744 0.00945918 -0.00691836 0 0 0
565 12 C 15.999 9.79194 -8.99515 -13.8826 0.00183739 0.00142738 -0.00037666 -1 1 0
521 4 C 1.008 9.21971 9.43391 -11.2958 0.00469208 -0.01389 0.0177125 0 0 0
463 12 C 15.999 2.13545 -8.91947 -12.0934 0.00149809 0.00601199 -0.0011198 0 0 0
592 12 C 15.999 9.92889 -2.28449 -17.1059 -0.00235523 -0.00391971 -0.00122408 -1 0 0
593 4 C 1.008 9.93722 -2.41907 -18.0534 0.0037851 0.00352461 -0.00239239 -1 0 0
1136 4 C 1.008 1.88818 -5.24532 18.3006 0.000694212 -0.00128296 0.0200754 0 0 0
33 4 C 1.008 -3.36669 -0.192849 -15.4447 -0.000307401 0.00432241 -0.00367484 0 0 0
159 4 C 1.008 -5.94347 -9.49914 -15.993 0.00207374 0.00184177 0.00386589 1 0 0
395 4 C 1.008 -7.21802 -8.10067 -18.0375 -0.00308606 0.0136288 0.00687728 0 0 0
97 12 C 15.999 -7.5124 2.25915 -17.3262 0.00118548 -0.000854633 -0.000317526 0 0 0
345 4 C 1.008 -5.67646 2.61908 -17.2004 -0.0121261 0.00685767 0.0227152 0 0 0
35 4 C 1.008 -4.85676 0.585751 -13.6191 -0.010644 -0.00394194 -0.0081451 0 0 0
34 12 C 15.999 -5.08024 0.945991 -12.7611 -0.0012049 -0.00274345 -0.00605045 0 0 0
98 4 C 1.008 -7.66123 1.63021 -18.0321 -0.0179199 0.0185498 -0.0136604 0 0 0
659 4 C 1.008 -3.12909 3.17554 -15.9414 0.00269509 0.000656083 -0.012106 0 -1 0
660 4 C 1.008 -2.08604 2.12451 -15.6264 0.0138426 0.0175765 0.00739918 0 -1 0
658 12 C 15.999 -2.52848 2.88733 -15.2542 -0.00201134 0.0132825 -0.00259762 0 -1 0
544 12 C 15.999 -3.07736 9.10711 -16.9229 -0.000686403 0.00533039 0.00716098 -1 -1 0
546 4 C 1.008 -3.8322 9.28112 -16.3607 -0.0158195 0.0024684 -0.0121512 -1 -1 0
343 12 C 15.999 -4.90364 3.1673 -17.0646 -0.00190859 -0.00361765 0.00666222 0 0 0
382 12 C 15.999 -1.5557 9.98528 -12.4142 -0.00112569 -0.00416723 -0.00515534 0 0 0
432 4 C 1.008 9.83008 2.61499 -15.7724 0.0243196 -0.0100668 0.00578298 -1 0 0
430 12 C 15.999 -10.0785 3.24312 -16.4383 -0.00519828 0.00173446 0.00444134 0 0 0
431 4 C 1.008 9.60611 3.00679 -17.2172 -0.0112135 -0.00879266 0.011385 -1 0 0
136 12 C 15.999 -6.7967 7.1259 -14.1593 0.00101402 0.00232661 0.00155082 0 0 0
137 4 C 1.008 -6.38595 7.82263 -14.6712 0.0154158 -0.01344 -0.00848631 0 0 0
426 4 C 1.008 -8.83701 4.12903 -13.8484 0.0074739 0.00887122 0.00697555 0 0 0
344 4 C 1.008 -5.00999 3.88958 -17.6836 -0.0070836 8.87431e-05 0.0117895 0 0 0
558 4 C 1.008 -6.14647 -9.58048 -13.5637 -0.00846769 0.0124281 0.00535714 0 0 0
556 12 C 15.999 -6.69891 -9.88132 -12.8424 -0.00370378 0.00117366 0.00446091 0 0 0
557 4 C 1.008 -6.16959 -9.73618 -12.0583 -0.00456608 0.00347535 0.00475065 0 0 0
1432 12 C 15.999 -0.141439 9.13601 -14.9406 -0.00253256 0.00461078 -0.00212645 0 -1 1
157 12 C 15.999 -5.9803 9.57551 -15.6845 0.0045293 -0.00115004 -0.0045333 1 -1 0
158 4 C 1.008 -6.86414 9.28225 -15.906 -0.00651625 0.00998036 0.0247767 1 -1 0
1433 4 C 1.008 -0.0746002 8.78555 -14.0526 -0.00988549 0.0166544 0.00332106 0 -1 1
138 4 C 1.008 -7.31858 6.63658 -14.7952 -0.000382461 -0.00259594 0.00637261 0 0 0
424 12 C 15.999 -8.56798 3.31086 -13.4308 0.000352058 0.00114062 -0.00348037 0 0 0
1418 4 C 1.008 -9.15389 6.56521 -15.4894 -0.00938214 0.00293345 0.0125988 0 0 1
186 4 C 1.008 -5.11706 5.03479 -12.6593 0.00884015 0.00121741 -0.00153612 0 0 0
1434 4 C 1.008 -0.901783 9.71682 -14.9129 -0.00297857 0.00470583 -0.0163872 0 -1 1
921 4 C 1.008 -2.94724 7.22482 -17.2317 -0.00266506 0.00224976 0.00854095 0 -1 1
1417 12 C 15.999 -8.83869 5.67414 -15.6406 -0.00246893 0.00752576 -9.8665e-05 0 0 1
1419 4 C 1.008 -9.61139 5.19335 -15.9372 -0.000611343 0.00370447 0.00122074 0 0 1
545 4 C 1.008 -2.76372 9.9745 -17.1788 0.0179534 0.00697574 0.0356712 -1 -1 0
184 12 C 15.999 -5.04754 5.95325 -12.3989 0.00245608 0.000212462 0.00375286 0 0 0
185 4 C 1.008 -5.65992 6.41265 -12.9734 -0.00444437 -0.00143539 0.00967478 0 0 0
75 4 C 1.008 -2.29946 5.22008 -14.3582 -0.000803297 0.00230847 0.00572362 0 -1 0
73 12 C 15.999 -1.37648 5.4422 -14.4806 -0.00173631 0.00604203 0.00546264 0 -1 0
425 4 C 1.008 -9.32848 3.04351 -12.9147 0.000212356 0.00433846 -0.00194484 0 0 0
276 4 C 1.008 -3.65907 6.66869 -11.4691 -0.000852655 0.00617915 -0.007575 0 -1 0
630 4 C 1.008 -6.30435 8.92768 -10.223 -0.00218558 -0.00168332 0.00822473 0 -1 0
628 12 C 15.999 -6.59353 8.02222 -10.1102 -0.00183791 -0.00276418 0.000401935 0 -1 0
664 12 C 15.999 -8.74274 6.63982 -11.8035 0.000895552 0.00424294 0.00258822 1 0 0
665 4 C 1.008 -8.05848 6.46547 -12.4497 -0.00400948 -0.0119242 0.0016399 1 0 0
74 4 C 1.008 -1.10784 4.93705 -15.2479 -0.00231106 0.0141461 -0.00020992 0 -1 0
588 4 C 1.008 -0.254619 6.45994 -13.3659 0.000308902 0.0081798 -0.00112498 0 0 0
322 12 C 15.999 -1.94014 -8.53004 -18.0246 0.00476663 0.00037613 -0.00409636 0 1 0
324 4 C 1.008 -2.36126 -7.85851 18.103 -0.0024159 0.0179871 0.0235321 0 1 -1
1250 4 C 1.008 -9.30313 9.20476 -15.786 0.00337775 0.0139286 0.00551429 0 0 1
1249 12 C 15.999 -8.498 8.87738 -16.187 -0.00370592 0.00304832 0.000119647 0 0 1
176 4 C 1.008 -8.53228 9.7292 -12.2517 0.0104741 -0.0195577 -0.0246241 0 0 0
666 4 C 1.008 -8.27148 6.96717 -11.0375 0.00871777 0.00217483 -0.00120995 1 0 0
177 4 C 1.008 -9.01695 8.29649 -12.3176 -0.0193573 -0.0108423 0.006533 0 0 0
37 12 C 15.999 -5.80053 3.38059 -13.4759 -0.00287612 -0.0015903 -0.00317002 0 0 0
39 4 C 1.008 -5.80945 3.43474 -14.4313 0.00627163 -0.0234177 -0.00464583 0 0 0
175 12 C 15.999 -9.2953 9.17928 -12.0738 0.00355917 -0.00189432 0.000189206 0 0 0
383 4 C 1.008 -1.97328 9.14769 -12.2134 -0.0204129 0.00724044 0.00239407 0 0 0
629 4 C 1.008 -6.13102 7.53572 -10.7924 -0.00159317 0.00330698 -0.00387785 0 -1 0
63 4 C 1.008 -1.52679 5.1078 -17.3002 0.00324088 -0.00920161 -0.0153355 0 0 0
61 12 C 15.999 -0.64433 4.81737 -17.5307 0.00798756 -0.00667072 -0.000314615 0 0 0
1251 4 C 1.008 -8.76254 8.59928 -17.0637 -0.0103833 0.0199446 -0.00337641 0 0 1
1086 4 C 1.008 -0.179664 2.91174 -13.793 0.00817486 0.00564042 0.00692458 0 0 0
1505 4 C 1.008 0.381291 3.26844 -17.2517 0.0238512 0.0153248 -0.00685471 0 0 1
350 4 C 1.008 6.87199 2.91555 -13.5809 0.0337777 -0.00649542 0.00155318 -1 0 0
275 4 C 1.008 -3.00483 6.36944 -10.1372 -0.00340895 -0.00631962 -0.00891208 0 -1 0
274 12 C 15.999 -2.94019 6.94377 -10.9001 -0.00059312 -0.000635805 -0.00451085 0 -1 0
38 4 C 1.008 -6.722 3.43944 -13.2236 -0.00582336 -0.00268836 -0.0136479 0 0 0
475 12 C 15.999 -2.02306 3.33291 -11.8169 -0.00360056 0.0047117 -0.00455919 0 0 0
476 4 C 1.008 -2.23493 3.04152 -12.7036 -0.0104917 -0.0181298 0.00443561 0 0 0
477 4 C 1.008 -2.87002 3.54788 -11.4262 -0.00197949 -0.000802741 0.00203073 0 0 0
99 4 C 1.008 -8.22443 2.09792 -16.7072 4.56356e-05 0.00336059 -0.00043384 0 0 0
883 12 C 15.999 -5.5679 5.47139 18.2042 0.00292206 0.00605518 0.00417203 0 0 0
884 4 C 1.008 -5.63034 5.15273 17.3039 0.0180203 -0.00378082 0.00646591 0 0 0
1477 12 C 15.999 -9.43213 7.75518 18.2264 0.00231035 0.0031391 -0.00368105 0 -1 0
110 4 C 1.008 -0.886355 -2.08424 -17.1351 0.00850063 0.0249713 0.0200344 0 0 0
627 4 C 1.008 6.5829 5.0909 -16.4407 0.0132494 -0.0186796 -0.00889258 -1 0 0
626 4 C 1.008 7.30985 4.65132 -15.1878 0.00329498 -0.00770558 0.000928922 -1 0 0
625 12 C 15.999 7.40012 5.21291 -15.9576 0.00190857 -0.000610381 0.0057994 -1 0 0
553 12 C 15.999 0.446835 7.58359 -17.1269 0.00196352 0.00187629 -0.00434859 0 -1 0
554 4 C 1.008 0.0994522 8.00667 -16.3418 0.0175854 0.0139557 -0.0038376 0 -1 0
559 12 C 15.999 8.82803 0.339526 -16.1664 -0.00284897 0.00423269 -0.00221655 0 0 0
586 12 C 15.999 0.615619 6.79243 -13.146 0.00113232 0.0079755 -0.00401223 0 0 0
587 4 C 1.008 0.917209 6.22483 -12.4368 0.0135959 -0.00755859 -0.0216943 0 0 0
1404 4 C 1.008 2.05197 8.26652 -13.8174 0.00379523 0.00536091 -0.00375923 0 0 1
1085 4 C 1.008 1.06853 2.15556 -14.1956 0.000819302 0.00914362 -0.0225251 0 0 0
1403 4 C 1.008 3.43052 7.87108 -14.3022 0.00299921 -0.00183722 -0.000253515 0 0 1
288 4 C 1.008 4.52657 6.48376 -15.3047 -0.0060074 -0.00942667 0.0135113 0 -1 0
286 12 C 15.999 3.9193 7.00166 -15.8331 0.00465972 -0.00171299 0.00872658 0 -1 0
287 4 C 1.008 3.16201 6.42971 -15.958 -0.00111872 0.00744326 0.0017834 0 -1 0
555 4 C 1.008 0.395066 6.64673 -16.9376 0.00546947 0.00479087 0.0109959 0 -1 0
596 4 C 1.008 4.79108 1.17346 -13.7031 0.0227867 -0.000349758 -0.000797749 -1 0 0
305 4 C 1.008 7.33221 1.70531 -16.854 -0.00442299 -0.0138413 -0.00173267 0 0 0
1533 4 C 1.008 9.71103 6.34506 -12.5153 -0.0248688 0.018849 0.0205673 -1 0 1
93 4 C 1.008 9.28117 -9.15162 -15.6882 0.0122167 0.00432884 -0.0124182 -1 1 0
91 12 C 15.999 8.84027 -9.61038 -16.4031 -0.000215618 -0.0029854 -0.000197839 -1 1 0
1532 4 C 1.008 8.75948 5.38446 -13.1962 0.0122048 -0.0020046 -0.00200999 -1 0 1
1531 12 C 15.999 9.06749 6.29039 -13.2217 0.00339484 0.000941803 -0.00393455 -1 0 1
95 4 C 1.008 8.12368 6.95807 -15.7497 0.00572462 -0.00463372 0.00301189 -1 0 0
96 4 C 1.008 8.54795 7.7359 -14.5224 -0.00683074 -0.00102087 0.00527367 -1 0 0
94 12 C 15.999 8.49974 7.79477 -15.4764 -0.000807258 -0.00224729 0.00472755 -1 0 0
92 4 C 1.008 8.51774 9.56042 -16.0065 -0.0151768 0.0126742 0.0197372 -1 0 0
131 4 C 1.008 9.45691 3.02477 -10.7889 0.00870704 0.00288826 0.002047 -1 0 0
1452 4 C 1.008 1.83361 4.0247 -15.2275 -0.00431555 0.00151044 0.00527945 0 0 1
1410 4 C 1.008 4.00734 3.38796 -15.2418 0.00138944 0.00136022 -0.00307127 0 -1 1
509 4 C 1.008 1.41585 1.28195 -16.1688 0.000759306 -3.87403e-05 -0.00666335 0 -1 0
1408 12 C 15.999 4.52217 2.65818 -14.8975 0.000976064 0.000636407 -0.00393103 0 -1 1
510 4 C 1.008 2.71683 0.774096 -15.5846 0.001689 0.00169264 -0.00712497 0 -1 0
508 12 C 15.999 1.77088 0.77564 -15.4383 0.00249759 0.00777837 -0.00195467 0 -1 0
1450 12 C 15.999 2.30803 4.74638 -15.6401 -0.000516045 -0.00198365 0.00349123 0 0 1
1409 4 C 1.008 5.21348 2.52505 -15.5459 0.0174906 0.0193318 0.00974924 0 -1 1
304 12 C 15.999 6.38815 1.85822 -16.8939 -0.00250789 -0.00229368 -0.00228754 0 0 0
132 4 C 1.008 9.83647 1.71605 -11.4484 -0.0069034 -0.001611 0.00191648 -1 0 0
130 12 C 15.999 9.71815 2.64853 -11.6292 -0.00263346 -0.00138755 0.000285842 -1 0 0
1472 4 C 1.008 4.71068 3.61466 -12.4004 -0.0162663 -0.0102169 -0.0243577 -1 -1 1
306 4 C 1.008 6.19858 1.94642 -17.8278 -0.00173698 -0.00522216 -0.00287534 0 0 0
532 12 C 15.999 7.38815 1.18179 -13.6169 0.00626731 -0.00194044 -0.00334272 0 0 0
1402 12 C 15.999 2.98137 8.46169 -13.6976 0.00487044 -0.00419287 0.00353436 0 0 1
1471 12 C 15.999 4.0369 3.15574 -11.8988 -0.00255821 0.000417766 0.00380361 -1 -1 1
1084 12 C 15.999 0.765226 3.01574 -13.9053 0.00700617 0.00494256 -0.00355899 0 0 0
1473 4 C 1.008 4.12888 2.23847 -12.1565 -0.0258315 -0.00144175 0.00221656 -1 -1 1
597 4 C 1.008 5.46408 0.501725 -12.5253 -0.0116175 0.0111621 0.0256396 -1 0 0
595 12 C 15.999 4.61307 0.811424 -12.8352 -0.00324987 0.00461005 -0.00391047 -1 0 0
45 4 C 1.008 2.58538 8.89853 -10.5863 0.00116268 -0.00174485 0.0080848 -1 -1 0
43 12 C 15.999 3.05477 8.12349 -10.8948 0.000867604 -0.00182514 0.00778418 -1 -1 0
44 4 C 1.008 3.09462 8.22961 -11.8451 0.014516 0.0061762 0.00907016 -1 -1 0
673 12 C 15.999 2.60466 1.41611 -8.41449 -0.00088365 -0.00988415 0.0032849 0 0 0
674 4 C 1.008 3.10414 0.827511 -7.84862 0.00588599 -0.00806885 -0.0007146 0 0 0
675 4 C 1.008 2.31017 2.11641 -7.83227 -0.0160725 -0.0217279 0.00996886 0 0 0
1431 4 C 1.008 4.8349 6.26653 -12.4928 0.00586811 -0.00157544 0.00398736 -1 -1 1
552 4 C 1.008 6.12992 8.10232 -13.461 -0.00014943 -0.00217727 0.00582531 0 -1 0
550 12 C 15.999 6.56176 8.78575 -12.9486 -0.00286964 0.00417578 -0.000279445 0 -1 0
551 4 C 1.008 6.34617 9.5996 -13.4039 -0.00203205 -0.00130194 -0.0104923 0 -1 0
1504 12 C 15.999 1.01045 2.55127 -17.3295 0.00390674 -0.00248447 -0.00376114 0 0 1
351 4 C 1.008 7.08417 4.05154 -12.6031 -0.0138403 0.00081044 0.00353811 -1 0 0
349 12 C 15.999 6.84064 3.86965 -13.5106 0.00242298 -0.00749014 0.000682584 -1 0 0
300 4 C 1.008 7.91896 9.12725 18.314 0.0106758 -0.0146783 -0.000988871 0 -1 -1
480 4 C 1.008 8.06198 6.42712 18.1471 0.00467876 -0.00217091 0.0121007 -1 0 -1
1430 4 C 1.008 5.05086 5.38051 -13.701 -0.014764 -8.56407e-05 -0.00101051 -1 -1 1
1429 12 C 15.999 5.06428 6.29588 -13.4215 -0.0115067 -0.00029792 -0.000408751 -1 -1 1
1377 4 C 1.008 5.24864 8.43304 -16.8685 0.0121993 -0.00650851 -4.62114e-05 0 0 1
1375 12 C 15.999 5.43996 8.67924 -17.7733 -0.00349519 -0.00194403 -0.00228215 0 0 1
520 12 C 15.999 8.39895 9.50764 -10.8089 -0.00463966 0.00359825 -0.000598926 0 0 0
102 4 C 1.008 1.424 4.3284 -12.7076 -0.0192946 -0.00680607 0.0119216 0 -1 0
100 12 C 15.999 1.72573 4.796 -11.9289 -0.000905805 -0.00306902 0.00266537 0 -1 0
522 4 C 1.008 7.72324 9.25405 -11.4375 0.00591243 -0.00244348 -0.0096088 0 0 0
495 4 C 1.008 8.07407 1.16552 17.3478 -0.00160535 0.00247849 -0.00894192 0 0 -1
493 12 C 15.999 7.17906 1.15526 17.0086 -0.0024962 -0.00553529 -0.00638243 0 0 -1
348 4 C 1.008 5.0732 3.83652 -17.9155 -0.0277277 -0.00551753 0.01231 -1 0 0
346 12 C 15.999 5.15593 4.5747 -17.3119 -0.000444914 0.00165159 -0.000108395 -1 0 0
479 4 C 1.008 8.14014 5.08826 -17.8149 0.00684869 -0.0154174 -0.0132175 -1 0 0
478 12 C 15.999 8.52041 5.5871 18.1264 0.00344464 -0.00239629 -0.00617013 -1 0 -1
1478 4 C 1.008 -9.22686 6.82523 18.13 0.015515 0.003697 0.0190733 0 -1 0
391 12 C 15.999 -5.42419 -0.994232 -10.7892 -0.00466517 0.00382858 0.000245887 0 0 0
393 4 C 1.008 -4.50966 -1.23922 -10.6484 0.00214902 0.0191677 -0.01725 0 0 0
49 12 C 15.999 -2.98231 -0.801684 -9.43891 -0.000599524 -0.00541583 -0.00103685 0 0 0
214 12 C 15.999 8.76677 -6.11569 -12.0591 -0.00503734 0.000140232 0.000891847 -1 0 0
216 4 C 1.008 9.62516 -6.06213 -12.4792 0.000160948 2.92779e-05 0.011433 -1 0 0
59 4 C 1.008 -0.205439 -5.27328 -10.4989 -0.00565602 -0.00329444 0.015601 0 0 0
1460 4 C 1.008 -5.62247 -3.49961 -11.4741 0.0202268 -0.00963779 0.00947733 0 0 1
1459 12 C 15.999 -5.96836 -4.3084 -11.0967 -0.00679664 -0.00239867 0.000338585 0 0 1
548 4 C 1.008 -8.57862 -2.30271 -11.6103 0.0105596 0.0017898 0.00283004 0 0 0
547 12 C 15.999 -8.41857 -1.55515 -11.0344 0.0032177 0.00401162 0.00206657 0 0 0
549 4 C 1.008 -7.48995 -1.35545 -11.1527 0.0102099 -0.0114205 0.0310595 0 0 0
410 4 C 1.008 -3.3484 -6.16359 -6.48276 -0.0181013 0.000257087 -0.0141853 0 1 0
1461 4 C 1.008 -6.06317 -4.1165 -10.1639 0.00214093 -0.010717 0.00311791 0 0 1
58 12 C 15.999 -0.583589 -4.4586 -10.168 0.00249258 0.00678654 0.000197286 0 0 0
60 4 C 1.008 -0.390444 -4.4678 -9.23071 -0.0099807 0.0158931 0.00302047 0 0 0
411 4 C 1.008 -1.97611 -5.69093 -6.91314 -0.00493285 -0.000775287 0.0265578 0 1 0
1312 12 C 15.999 -3.01615 -6.6179 -10.2652 0.000718432 -0.00109973 0.00270337 0 0 1
409 12 C 15.999 -2.67036 -6.30869 -7.14252 0.00287023 -0.00263442 0.00787814 0 1 0
332 4 C 1.008 -7.44944 -3.05984 -8.96673 -0.00814155 -0.0217481 0.00615516 1 1 0
1314 4 C 1.008 -3.63388 -6.51107 -9.54199 -0.00727634 -0.0033149 -0.00367797 0 0 1
1313 4 C 1.008 -2.5998 -5.76056 -10.3538 0.00842231 -0.00346365 0.0160509 0 0 1
331 12 C 15.999 -6.68415 -3.43318 -8.52957 0.00610865 0.00102714 0.000744278 1 1 0
333 4 C 1.008 -6.66115 -3.00128 -7.6758 0.00979131 0.0149163 -0.00623446 1 1 0
1502 4 C 1.008 -6.39979 -7.15994 -8.95879 0.00605913 0.0213721 -0.0068907 0 1 1
1501 12 C 15.999 -5.46087 -7.34607 -8.95522 0.00195432 0.000767511 0.00184732 0 1 1
1503 4 C 1.008 -5.22129 -7.35393 -8.02867 -0.00595493 0.000141787 0.00403468 0 1 1
268 12 C 15.999 -3.36272 -2.90051 -7.46653 -0.00339469 -0.00289439 0.00218154 0 0 0
269 4 C 1.008 -3.47177 -3.80925 -7.74674 0.0176001 -0.00765856 0.00935761 0 0 0
528 4 C 1.008 -5.00613 -2.54911 -4.53177 -0.00456562 0.0145446 0.00753252 0 0 0
526 12 C 15.999 -4.96519 -1.98884 -5.30667 -0.000331102 0.00282577 -0.000836231 0 0 0
527 4 C 1.008 -4.63656 -1.1512 -4.98023 -0.00903784 0.00998828 -0.0104109 0 0 0
539 4 C 1.008 -5.29864 -9.12041 -5.0436 -0.00763779 -0.0105987 -0.0171736 1 0 0
1191 4 C 1.008 -4.72989 -4.47004 -4.87255 -0.00235044 -0.00524403 0.00106619 1 0 1
270 4 C 1.008 -3.69429 -2.88482 -6.56888 0.0241254 -0.0100708 0.0126897 0 0 0
50 4 C 1.008 -3.5564 -1.39525 -8.95491 -0.00955502 -0.0078224 -0.0144603 0 0 0
540 4 C 1.008 -3.99944 -9.76255 -4.60591 0.0017116 0.015262 -0.00698227 1 0 0
716 4 C 1.008 -2.13855 -8.03689 -7.3557 -0.0105314 -0.00384076 -0.0117297 0 1 0
717 4 C 1.008 -2.02516 -9.10161 -6.28564 -0.00956994 0.00835851 0.000493919 0 1 0
362 4 C 1.008 -5.71573 -6.85979 -5.73016 -0.00665872 0.00780411 -0.00688452 0 0 0
415 12 C 15.999 -8.29436 -7.87677 -9.25837 0.00237055 0.00291048 0.000341277 0 0 0
361 12 C 15.999 -5.91512 -7.6801 -6.18126 -0.00171043 0.00100526 0.00321448 0 0 0
363 4 C 1.008 -6.86409 -7.77468 -6.09908 -0.00219163 0.000553123 -0.00288944 0 0 0
538 12 C 15.999 -4.94905 -9.87911 -4.57635 0.0034696 0.00117214 -0.00631021 1 0 0
654 4 C 1.008 0.323887 -4.31329 -6.57244 0.0165041 -0.0062913 -0.0026811 1 0 0
652 12 C 15.999 0.257387 -4.71504 -7.43856 0.00957831 -0.00264434 -0.00399062 1 0 0
1542 14 C 35.45 -9.14611 -8.06173 -6.31995 -0.000704533 -0.00314722 0.00311288 0 0 0
715 12 C 15.999 -1.83376 -8.93216 -7.20792 0.0045323 0.00360496 0.0023751 0 1 0
198 4 C 1.008 -8.5633 -9.91269 -5.20881 -0.0182093 -0.00626135 0.0136833 0 0 0
1189 12 C 15.999 -4.38277 -5.31495 -5.15863 -0.0012647 -0.00422121 -0.000678924 1 0 1
1190 4 C 1.008 -4.22629 -5.79744 -4.34701 0.00532155 -0.00328654 -0.00125131 1 0 1
416 4 C 1.008 -9.10764 -7.41839 -9.46977 0.00018888 -0.00199228 -0.00191568 0 0 0
624 4 C 1.008 -7.5309 -6.86521 -12.7307 -0.0140858 0.00351215 0.013132 0 0 0
996 4 C 1.008 -0.656152 -1.05302 -6.91274 0.000559677 -0.0165306 -0.0060218 0 0 0
471 4 C 1.008 -1.69616 -0.780541 -4.26942 0.00986033 0.00866134 0.00972484 0 0 0