ITEM: TIMESTEP
2089
ITEM: NUMBER OF ATOMS
1542
ITEM: BOX BOUNDS pp pp pp
-1.0093999999999999e+01 1.0093999999999999e+01
-9.9900000000000002e+00 9.9900000000000002e+00
-2.0736999999999998e+01 2.0736999999999998e+01
ITEM: ATOMS id type element mass x y z vx vy vz ix iy iz
43 12 C 15.999 -8.42037 -3.48043 -16.9206 0 0 0 0 0 0
44 4 C 1.008 -8.26035 -2.83313 -17.6409 0 0 0 0 0 0
45 4 C 1.008 -9.37696 -3.30737 -16.7542 0 0 0 0 0 0
46 12 C 15.999 -8.12413 -0.377683 -12.5814 0 0 0 0 0 0
61 12 C 15.999 -3.59655 -5.57806 -12.6896 0 0 0 0 0 0
62 4 C 1.008 -3.80541 -4.79767 -13.2451 0 0 0 0 0 0
63 4 C 1.008 -3.96143 -6.30383 -13.2435 0 0 0 0 0 0
69 4 C 1.008 -7.19211 -3.40601 -13.0314 0 0 0 0 0 0
72 4 C 1.008 -3.14558 -2.31689 -13.0891 0 0 0 0 0 0
116 4 C 1.008 -0.150391 -0.238065 -16.8032 0 0 0 0 0 0
131 4 C 1.008 -3.80089 -0.264711 -15.3861 0 0 0 0 0 0
132 4 C 1.008 -3.18298 -0.384925 -13.9964 0 0 0 0 0 0
160 12 C 15.999 -4.1493 -0.939687 -17.0071 0 0 0 0 0 0
161 4 C 1.008 -5.09238 -0.730241 -17.19 0 0 0 0 0 0
162 4 C 1.008 -4.13273 -1.91574 -16.9426 0 0 0 0 0 0
209 4 C 1.008 -0.163249 -7.18123 -18.3429 0 0 0 0 0 0
214 12 C 15.999 -4.33559 -3.36611 -14.1036 0 0 0 0 0 0
215 4 C 1.008 -5.29549 -3.52436 -14.2339 0 0 0 0 0 0
216 4 C 1.008 -4.03939 -3.40953 -15.0398 0 0 0 0 0 0
229 12 C 15.999 -2.66346 -6.90104 -19.7106 0 0 0 0 0 0
230 4 C 1.008 -2.39569 -7.11572 -18.7968 0 0 0 0 0 0
231 4 C 1.008 -2.98654 -5.97961 -19.5868 0 0 0 0 0 0
232 12 C 15.999 -9.81022 -6.16221 -12.8247 0 0 0 0 0 0
234 4 C 1.008 -9.42307 -6.04435 -13.7029 0 0 0 0 0 0
235 12 C 15.999 -7.24284 -5.66969 -18.1249 0 0 0 0 0 0
236 4 C 1.008 -6.72428 -5.12929 -18.7549 0 0 0 0 0 0
237 4 C 1.008 -7.75763 -4.95554 -17.691 0 0 0 0 0 0
241 12 C 15.999 -0.93442 -6.27766 -13.1243 0 0 0 0 0 0
242 4 C 1.008 -1.80325 -6.03785 -12.7348 0 0 0 0 0 0
244 12 C 15.999 -6.95847 -4.12115 -14.6429 0 0 0 0 0 0
245 4 C 1.008 -7.45076 -3.75148 -15.4102 0 0 0 0 0 0
246 4 C 1.008 -7.15153 -5.07043 -14.7783 0 0 0 0 0 0
247 12 C 15.999 -3.47626 -3.63988 -16.6574 0 0 0 0 0 0
248 4 C 1.008 -2.6817 -4.11037 -16.3261 0 0 0 0 0 0
249 4 C 1.008 -3.50864 -3.97722 -17.5777 0 0 0 0 0 0
253 12 C 15.999 -3.49748 -4.33057 -19.3047 0 0 0 0 0 0
254 4 C 1.008 -4.43493 -4.11883 -19.5126 0 0 0 0 0 0
255 4 C 1.008 -3.0218 -3.5924 -19.7476 0 0 0 0 0 0
262 12 C 15.999 -4.49699 -7.65613 -14.2418 0 0 0 0 0 0
263 4 C 1.008 -5.34312 -8.11909 -14.0627 0 0 0 0 0 0
264 4 C 1.008 -3.83309 -8.33691 -14 0 0 0 0 0 0
313 12 C 15.999 -7.86068 -1.76056 -19.0181 0 0 0 0 0 0
314 4 C 1.008 -7.44697 -0.993071 -18.5682 0 0 0 0 0 0
315 4 C 1.008 -8.55202 -1.30422 -19.5505 0 0 0 0 0 0
361 12 C 15.999 -1.33153 -4.99131 -15.5577 0 0 0 0 0 0
362 4 C 1.008 -0.552963 -4.39172 -15.617 0 0 0 0 0 0
363 4 C 1.008 -1.2071 -5.35346 -14.6552 0 0 0 0 0 0
367 12 C 15.999 -0.0973972 -8.17179 -14.9372 0 0 0 0 0 0
368 4 C 1.008 -0.340419 -7.45866 -14.3038 0 0 0 0 0 0
373 12 C 15.999 -4.2498 -8.04608 -16.9733 0 0 0 0 0 0
374 4 C 1.008 -4.46104 -7.81152 -16.0494 0 0 0 0 0 0
375 4 C 1.008 -3.31105 -7.795 -17.0179 0 0 0 0 0 0
385 12 C 15.999 -6.11395 -3.72399 -19.8511 0 0 0 0 0 0
386 4 C 1.008 -6.75627 -3.01494 -19.6198 0 0 0 0 0 0
431 4 C 1.008 -3.52451 -0.308085 -18.5801 0 0 0 0 0 0
432 4 C 1.008 -2.78171 -0.804634 -19.8022 0 0 0 0 0 0
436 12 C 15.999 -2.07837 -2.29616 -20.504 0 0 0 0 0 0
438 4 C 1.008 -1.15342 -2.34555 -20.1618 0 0 0 0 0 0
556 12 C 15.999 -7.85159 -6.64439 -15.4924 0 0 0 0 0 0
557 4 C 1.008 -8.78534 -6.63112 -15.8141 0 0 0 0 0 0
558 4 C 1.008 -7.39419 -6.53397 -16.348 0 0 0 0 0 0
610 12 C 15.999 -7.02151 -8.69821 -13.7839 0 0 0 0 0 0
611 4 C 1.008 -7.4052 -8.01625 -14.3765 0 0 0 0 0 0
612 4 C 1.008 -7.72628 -9.37778 -13.78 0 0 0 0 0 0
613 12 C 15.999 -7.71819 -8.08175 -19.4018 0 0 0 0 0 0
614 4 C 1.008 -6.88918 -8.58036 -19.2394 0 0 0 0 0 0
615 4 C 1.008 -7.51083 -7.24073 -18.9368 0 0 0 0 0 0
616 12 C 15.999 -2.34848 -9.25333 -13.6085 0 0 0 0 0 0
617 4 C 1.008 -1.53417 -9.03481 -14.0975 0 0 0 0 0 0
618 4 C 1.008 -2.05542 -9.15349 -12.678 0 0 0 0 0 0
628 12 C 15.999 -5.32037 -9.51065 -18.9837 0 0 0 0 0 0
630 4 C 1.008 -4.97543 -8.9915 -18.2182 0 0 0 0 0 0
631 12 C 15.999 -1.59153 -7.21353 -17.119 0 0 0 0 0 0
632 4 C 1.008 -1.1003 -7.74982 -16.4639 0 0 0 0 0 0
633 4 C 1.008 -1.55645 -6.34001 -16.6664 0 0 0 0 0 0
554 4 C 1.008 -9.57955 -7.36975 -19.4457 0 0 0 1 0 0
1541 14 C 35.45 -9.96855 -0.115442 -20.7074 0 0 0 1 0 0
47 4 C 1.008 -7.8253 -1.30802 -12.567 0 0 0 0 0 0
70 12 C 15.999 -2.69528 -1.54935 -12.6776 0 0 0 0 0 0
71 4 C 1.008 -1.78348 -1.88333 -12.5346 0 0 0 0 0 0
1472 4 C 1.008 -4.91341 -8.80586 -20.6126 0 0 0 0 0 1
1473 4 C 1.008 -3.7946 -7.82994 -20.7145 0 0 0 0 0 1
210 4 C 1.008 0.39685 -7.26067 -19.7419 0 0 0 0 0 0
64 12 C 15.999 3.93594 -5.41833 -14.1502 0 0 0 0 0 0
65 4 C 1.008 4.62396 -5.60728 -13.4714 0 0 0 0 0 0
66 4 C 1.008 4.48927 -5.00631 -14.8442 0 0 0 0 0 0
115 12 C 15.999 0.60885 -0.76113 -16.4604 0 0 0 0 0 0
117 4 C 1.008 1.18406 -0.801414 -17.2448 0 0 0 0 0 0
118 12 C 15.999 0.52663 -2.40903 -19.6422 0 0 0 0 0 0
119 4 C 1.008 1.1926 -1.8798 -19.1736 0 0 0 0 0 0
120 4 C 1.008 1.10873 -3.09171 -20.0286 0 0 0 0 0 0
124 12 C 15.999 4.11738 -0.204676 -16.1236 0 0 0 0 0 0
126 4 C 1.008 4.68324 -0.744646 -15.5328 0 0 0 0 0 0
145 12 C 15.999 2.7774 -1.27552 -18.2572 0 0 0 0 0 0
146 4 C 1.008 3.25866 -0.871198 -17.4989 0 0 0 0 0 0
147 4 C 1.008 3.37404 -1.00169 -18.9864 0 0 0 0 0 0
157 12 C 15.999 7.36811 -8.12301 -18.3636 0 0 0 0 0 0
158 4 C 1.008 7.34284 -7.66022 -17.5053 0 0 0 0 0 0
159 4 C 1.008 8.20378 -7.77141 -18.743 0 0 0 0 0 0
205 12 C 15.999 4.75477 -0.334095 -19.9571 0 0 0 0 0 0
206 4 C 1.008 5.70689 -0.570338 -19.9443 0 0 0 0 0 0
208 12 C 15.999 0.679911 -7.10384 -18.8191 0 0 0 0 0 0
217 12 C 15.999 0.862715 -3.38278 -15.6236 0 0 0 0 0 0
218 4 C 1.008 0.702351 -2.44148 -15.8572 0 0 0 0 0 0
219 4 C 1.008 1.61295 -3.59481 -16.2205 0 0 0 0 0 0
223 12 C 15.999 1.69391 -4.18266 -13.1544 0 0 0 0 0 0
224 4 C 1.008 1.32422 -3.88141 -14.0127 0 0 0 0 0 0
225 4 C 1.008 2.49112 -4.65001 -13.4851 0 0 0 0 0 0
274 12 C 15.999 3.03471 -6.6033 -17.6251 0 0 0 0 0 0
275 4 C 1.008 2.20707 -6.80029 -18.1282 0 0 0 0 0 0
276 4 C 1.008 2.98183 -5.62698 -17.5636 0 0 0 0 0 0
280 12 C 15.999 3.10403 -3.8606 -17.1639 0 0 0 0 0 0
281 4 C 1.008 4.03048 -3.8857 -16.8637 0 0 0 0 0 0
282 4 C 1.008 3.08484 -3.05176 -17.7121 0 0 0 0 0 0
298 12 C 15.999 6.75714 -3.00915 -18.1188 0 0 0 0 0 0
299 4 C 1.008 6.23467 -3.46076 -18.8161 0 0 0 0 0 0
300 4 C 1.008 6.99769 -2.17826 -18.5874 0 0 0 0 0 0
355 12 C 15.999 2.61288 -7.6087 -15.1121 0 0 0 0 0 0
356 4 C 1.008 2.71634 -7.3468 -16.0564 0 0 0 0 0 0
357 4 C 1.008 3.03003 -6.82358 -14.6896 0 0 0 0 0 0
369 4 C 1.008 0.871152 -8.01873 -15.0047 0 0 0 0 0 0
496 12 C 15.999 7.88093 -0.675592 -15.1981 0 0 0 0 0 0
497 4 C 1.008 7.02163 -1.06103 -14.92 0 0 0 0 0 0
498 4 C 1.008 8.30799 -0.518806 -14.3473 0 0 0 0 0 0
505 12 C 15.999 7.45457 -0.651072 -19.3356 0 0 0 0 0 0
506 4 C 1.008 8.33853 -0.559002 -19.7598 0 0 0 0 0 0
508 12 C 15.999 5.23361 -4.38627 -19.9572 0 0 0 0 0 0
510 4 C 1.008 5.21027 -5.36244 -19.8529 0 0 0 0 0 0
511 12 C 15.999 5.53026 -1.95009 -14.4568 0 0 0 0 0 0
512 4 C 1.008 5.58792 -2.83733 -14.8604 0 0 0 0 0 0
513 4 C 1.008 5.20388 -2.16746 -13.5567 0 0 0 0 0 0
523 12 C 15.999 5.0413 -7.09861 -19.534 0 0 0 0 0 0
524 4 C 1.008 5.79442 -7.57218 -19.1221 0 0 0 0 0 0
525 4 C 1.008 4.38324 -7.1004 -18.8071 0 0 0 0 0 0
526 12 C 15.999 5.71183 -4.32855 -15.9871 0 0 0 0 0 0
527 4 C 1.008 6.25137 -5.14921 -15.9821 0 0 0 0 0 0
528 4 C 1.008 6.16926 -3.83382 -16.7075 0 0 0 0 0 0
541 12 C 15.999 7.07524 -6.80527 -15.8903 0 0 0 0 0 0
542 4 C 1.008 7.44504 -7.04934 -15.0116 0 0 0 0 0 0
543 4 C 1.008 6.32371 -7.44881 -15.9195 0 0 0 0 0 0
553 12 C 15.999 9.72315 -7.02026 -19.2336 0 0 0 0 0 0
555 4 C 1.008 9.49149 -6.5314 -20.0527 0 0 0 0 0 0
609 4 C 1.008 7.46588 -9.00763 -12.7801 0 0 0 0 0 0
619 12 C 15.999 2.69684 -8.89376 -12.5777 0 0 0 0 0 0
620 4 C 1.008 2.67691 -8.59239 -13.5058 0 0 0 0 0 0
621 4 C 1.008 3.0271 -9.81541 -12.6756 0 0 0 0 0 0
622 12 C 15.999 5.12525 -8.64864 -16.0185 0 0 0 0 0 0
623 4 C 1.008 4.22408 -8.55563 -15.6746 0 0 0 0 0 0
624 4 C 1.008 5.00662 -9.35836 -16.6836 0 0 0 0 0 0
649 12 C 15.999 9.13219 -2.76358 -16.6304 0 0 0 0 0 0
650 4 C 1.008 8.79928 -1.986 -16.1467 0 0 0 0 0 0
651 4 C 1.008 8.38332 -2.94776 -17.225 0 0 0 0 0 0
658 12 C 15.999 7.94907 -7.37459 -13.3567 0 0 0 0 0 0
659 4 C 1.008 8.82223 -6.99275 -13.1174 0 0 0 0 0 0
660 4 C 1.008 7.32875 -6.747 -12.9314 0 0 0 0 0 0
676 12 C 15.999 9.84523 -6.52182 -16.5058 0 0 0 0 0 0
677 4 C 1.008 8.90122 -6.41491 -16.3054 0 0 0 0 0 0
678 4 C 1.008 9.83276 -6.59924 -17.4814 0 0 0 0 0 0
1439 4 C 1.008 3.51461 -4.03483 -20.3603 0 0 0 0 0 1
180 4 C 1.008 0.328588 -9.91917 -15.5998 0 0 0 0 1 0
1438 12 C 15.999 2.6295 -3.82246 -20.723 0 0 0 0 0 1
48 4 C 1.008 -7.28335 0.0839828 -12.7607 0 0 0 0 0 0
130 12 C 15.999 -3.69525 0.239931 -14.5496 0 0 0 0 0 0
430 12 C 15.999 -3.09187 0.0296342 -19.3918 0 0 0 0 0 0
629 4 C 1.008 -4.70371 9.71234 -18.9627 0 0 0 0 -1 0
94 12 C 15.999 -7.80848 2.33361 -16.3731 0 0 0 0 0 0
95 4 C 1.008 -8.28983 2.48852 -17.2091 0 0 0 0 0 0
96 4 C 1.008 -8.06007 3.11814 -15.8542 0 0 0 0 0 0
181 12 C 15.999 -7.47845 6.8901 -13.9936 0 0 0 0 0 0
182 4 C 1.008 -7.04111 6.51651 -13.2003 0 0 0 0 0 0
183 4 C 1.008 -7.86399 6.0907 -14.4134 0 0 0 0 0 0
268 12 C 15.999 -1.37104 0.89806 -17.4258 0 0 0 0 0 0
269 4 C 1.008 -1.80088 0.670644 -18.276 0 0 0 0 0 0
270 4 C 1.008 -2.11887 1.33469 -16.9673 0 0 0 0 0 0
284 4 C 1.008 -4.95317 0.529591 -13.3322 0 0 0 0 0 0
288 4 C 1.008 -0.416876 2.18455 -16.7633 0 0 0 0 0 0
310 12 C 15.999 -4.40995 4.3058 -14.438 0 0 0 0 0 0
311 4 C 1.008 -4.46217 5.24919 -14.71 0 0 0 0 0 0
312 4 C 1.008 -5.33057 4.03519 -14.5531 0 0 0 0 0 0
316 12 C 15.999 -3.15361 2.46814 -16.0233 0 0 0 0 0 0
317 4 C 1.008 -3.46186 3.20556 -15.4555 0 0 0 0 0 0
318 4 C 1.008 -3.39701 1.7091 -15.4489 0 0 0 0 0 0
322 12 C 15.999 -4.95425 6.89834 -15.2027 0 0 0 0 0 0
323 4 C 1.008 -5.89533 7.06789 -15.0039 0 0 0 0 0 0
324 4 C 1.008 -4.54512 7.53614 -14.5692 0 0 0 0 0 0
343 12 C 15.999 -1.20927 3.10107 -19.8344 0 0 0 0 0 0
345 4 C 1.008 -2.08495 3.06475 -19.4017 0 0 0 0 0 0
346 12 C 15.999 -3.65618 3.62874 -18.4779 0 0 0 0 0 0
347 4 C 1.008 -3.5081 3.2216 -17.5996 0 0 0 0 0 0
348 4 C 1.008 -3.6714 4.58184 -18.2472 0 0 0 0 0 0
349 12 C 15.999 -6.54795 0.267188 -17.6799 0 0 0 0 0 0
350 4 C 1.008 -6.99935 0.830189 -17.0127 0 0 0 0 0 0
351 4 C 1.008 -6.329 0.963363 -18.3353 0 0 0 0 0 0
358 12 C 15.999 -1.19507 5.30887 -16.4477 0 0 0 0 0 0
359 4 C 1.008 -2.09105 5.62209 -16.6925 0 0 0 0 0 0
370 12 C 15.999 -3.54552 6.26667 -17.5136 0 0 0 0 0 0
371 4 C 1.008 -3.4912 7.06864 -18.0732 0 0 0 0 0 0
372 4 C 1.008 -4.12333 6.57881 -16.7836 0 0 0 0 0 0
382 12 C 15.999 -6.03463 2.36605 -19.4051 0 0 0 0 0 0
383 4 C 1.008 -5.34553 2.93693 -19.0113 0 0 0 0 0 0
384 4 C 1.008 -5.56871 2.11011 -20.2253 0 0 0 0 0 0
394 12 C 15.999 -8.72183 4.6984 -15.1076 0 0 0 0 0 0
395 4 C 1.008 -9.43585 4.73794 -14.4496 0 0 0 0 0 0
396 4 C 1.008 -9.2146 4.80743 -15.957 0 0 0 0 0 0
404 4 C 1.008 -0.420276 5.88564 -19.5346 0 0 0 0 0 0
416 4 C 1.008 -3.68437 1.25978 -20.6063 0 0 0 0 0 0
475 12 C 15.999 -2.98488 8.65192 -19.0345 0 0 0 0 0 0
476 4 C 1.008 -2.08007 8.83605 -18.7145 0 0 0 0 0 0
477 4 C 1.008 -2.80253 8.5935 -19.9947 0 0 0 0 0 0
478 12 C 15.999 -8.87535 2.49593 -18.965 0 0 0 0 0 0
479 4 C 1.008 -7.95723 2.49334 -19.3007 0 0 0 0 0 0
480 4 C 1.008 -9.2757 1.78101 -19.503 0 0 0 0 0 0
625 12 C 15.999 -9.94548 4.74378 -17.5486 0 0 0 0 0 0
626 4 C 1.008 -9.68382 4.07691 -18.2132 0 0 0 0 0 0
644 4 C 1.008 -7.14174 7.60189 -20.2139 0 0 0 0 0 0
709 12 C 15.999 -8.90043 9.16779 -13.3861 0 0 0 0 0 0
710 4 C 1.008 -9.82243 8.92895 -13.6025 0 0 0 0 0 0
711 4 C 1.008 -8.41147 8.38609 -13.7279 0 0 0 0 0 0
712 12 C 15.999 -8.82341 8.74606 -19.5805 0 0 0 0 0 0
713 4 C 1.008 -8.92177 9.32238 -20.3636 0 0 0 0 0 0
714 4 C 1.008 -8.44229 9.36284 -18.9443 0 0 0 0 0 0
715 12 C 15.999 -4.05527 8.61568 -13.3191 0 0 0 0 0 0
716 4 C 1.008 -3.42043 9.31754 -13.5644 0 0 0 0 0 0
151 12 C 15.999 0.291234 5.23046 -14.1182 0 0 0 0 0 0
153 4 C 1.008 -0.340395 5.36742 -14.8555 0 0 0 0 0 0
287 4 C 1.008 -0.482387 3.65508 -16.3634 0 0 0 0 0 0
360 4 C 1.008 -0.68904 5.66832 -17.2077 0 0 0 0 0 0
634 12 C 15.999 -0.184746 8.74413 -18.5336 0 0 0 0 0 0
636 4 C 1.008 -0.107572 7.7654 -18.5528 0 0 0 0 0 0
134 4 C 1.008 -3.49786 3.91758 -12.8331 0 0 0 0 0 0
283 12 C 15.999 -5.54595 0.613215 -12.5531 0 0 0 0 0 0
481 12 C 15.999 -9.93639 5.16273 -12.5101 0 0 0 0 0 0
344 4 C 1.008 -1.28856 3.97115 -20.2846 0 0 0 0 0 0
28 12 C 15.999 2.03868 0.686934 -14.5755 0 0 0 0 0 0
30 4 C 1.008 1.42233 0.15359 -15.1195 0 0 0 0 0 0
125 4 C 1.008 3.46928 0.145921 -15.4739 0 0 0 0 0 0
507 4 C 1.008 7.53778 0.0432093 -18.6488 0 0 0 0 0 0
608 4 C 1.008 7.63067 9.48936 -12.9356 0 0 0 0 -1 0
627 4 C 1.008 9.84754 5.44434 -18.1023 0 0 0 -1 0 0
29 4 C 1.008 1.41892 1.15572 -13.9848 0 0 0 0 0 0
79 12 C 15.999 0.153858 2.54056 -13.6074 0 0 0 0 0 0
80 4 C 1.008 0.114498 2.51233 -14.5861 0 0 0 0 0 0
81 4 C 1.008 0.260983 3.51011 -13.51 0 0 0 0 0 0
106 12 C 15.999 3.01993 5.62658 -14.7958 0 0 0 0 0 0
107 4 C 1.008 3.23073 4.66563 -14.9104 0 0 0 0 0 0
108 4 C 1.008 3.91997 5.98042 -14.6217 0 0 0 0 0 0
109 12 C 15.999 3.6053 2.99701 -14.8454 0 0 0 0 0 0
110 4 C 1.008 2.99167 2.24326 -14.9002 0 0 0 0 0 0
111 4 C 1.008 4.22268 2.65895 -14.1601 0 0 0 0 0 0
152 4 C 1.008 1.14253 5.37595 -14.5706 0 0 0 0 0 0
163 12 C 15.999 7.14895 5.76134 -20.478 0 0 0 0 0 0
164 4 C 1.008 7.93602 6.20956 -20.105 0 0 0 0 0 0
178 12 C 15.999 0.724099 9.25583 -15.969 0 0 0 0 0 0
179 4 C 1.008 0.259608 9.17221 -16.8263 0 0 0 0 0 0
184 12 C 15.999 2.52471 8.24365 -19.4033 0 0 0 0 0 0
185 4 C 1.008 3.09032 7.63577 -19.9198 0 0 0 0 0 0
186 4 C 1.008 2.53019 7.81411 -18.5252 0 0 0 0 0 0
187 12 C 15.999 2.78381 7.62678 -16.7096 0 0 0 0 0 0
188 4 C 1.008 2.06242 8.17666 -16.3255 0 0 0 0 0 0
189 4 C 1.008 2.79975 6.87448 -16.0857 0 0 0 0 0 0
207 4 C 1.008 4.79825 0.504225 -19.4513 0 0 0 0 0 0
286 12 C 15.999 0.124056 2.88404 -16.3388 0 0 0 0 0 0
304 12 C 15.999 6.07309 5.60905 -17.9252 0 0 0 0 0 0
305 4 C 1.008 5.32343 5.02154 -18.1008 0 0 0 0 0 0
306 4 C 1.008 6.50849 5.60745 -18.8011 0 0 0 0 0 0
328 12 C 15.999 4.04612 3.91707 -19.2808 0 0 0 0 0 0
329 4 C 1.008 4.4059 3.11953 -18.8294 0 0 0 0 0 0
330 4 C 1.008 3.08709 3.80208 -19.0893 0 0 0 0 0 0
331 12 C 15.999 9.2138 7.02444 -19.0533 0 0 0 0 0 0
332 4 C 1.008 10.0257 7.52253 -19.2877 0 0 0 0 0 0
333 4 C 1.008 8.6272 7.7536 -18.7839 0 0 0 0 0 0
337 12 C 15.999 5.03293 1.64322 -18.043 0 0 0 0 0 0
338 4 C 1.008 4.65735 1.15294 -17.2833 0 0 0 0 0 0
339 4 C 1.008 5.98218 1.6307 -17.7916 0 0 0 0 0 0
403 12 C 15.999 0.114571 6.03537 -18.7239 0 0 0 0 0 0
405 4 C 1.008 0.75693 5.30138 -18.7922 0 0 0 0 0 0
409 12 C 15.999 4.29142 6.40899 -20.5907 0 0 0 0 0 0
410 4 C 1.008 4.16343 5.55066 -20.1407 0 0 0 0 0 0
411 4 C 1.008 5.26427 6.4007 -20.6887 0 0 0 0 0 0
421 12 C 15.999 1.36436 3.5431 -18.7322 0 0 0 0 0 0
422 4 C 1.008 1.16511 3.25729 -17.8169 0 0 0 0 0 0
423 4 C 1.008 0.581806 3.18949 -19.2028 0 0 0 0 0 0
493 12 C 15.999 7.64181 1.14685 -17.2651 0 0 0 0 0 0
494 4 C 1.008 8.42249 1.71153 -17.1947 0 0 0 0 0 0
495 4 C 1.008 7.75947 0.5396 -16.5011 0 0 0 0 0 0
559 12 C 15.999 5.40014 6.87571 -14.1397 0 0 0 0 0 0
560 4 C 1.008 5.90646 7.17476 -14.9264 0 0 0 0 0 0
561 4 C 1.008 6.1198 6.42975 -13.6488 0 0 0 0 0 0
635 4 C 1.008 0.611287 8.96755 -19.0504 0 0 0 0 0 0
637 12 C 15.999 7.13829 7.44698 -16.1886 0 0 0 0 0 0
638 4 C 1.008 6.8314 6.68003 -16.7287 0 0 0 0 0 0
639 4 C 1.008 7.30014 8.08571 -16.9077 0 0 0 0 0 0
664 12 C 15.999 8.53909 8.16536 -13.8577 0 0 0 0 0 0
665 4 C 1.008 8.18217 8.03492 -14.761 0 0 0 0 0 0
666 4 C 1.008 8.2775 7.31568 -13.4585 0 0 0 0 0 0
667 12 C 15.999 7.60108 5.61923 -12.9762 0 0 0 0 0 0
669 4 C 1.008 8.55226 5.42429 -12.8191 0 0 0 0 0 0
685 12 C 15.999 7.27123 9.11427 -18.4374 0 0 0 0 0 0
686 4 C 1.008 6.2967 9.09779 -18.3003 0 0 0 0 0 0
687 4 C 1.008 7.41615 -9.89455 -18.3816 0 0 0 0 1 0
718 12 C 15.999 3.8423 8.61334 -12.6432 0 0 0 0 0 0
719 4 C 1.008 4.38456 8.09673 -13.2778 0 0 0 0 0 0
721 12 C 15.999 4.60188 9.33557 -17.8523 0 0 0 0 0 0
722 4 C 1.008 3.99483 9.36449 -18.6148 0 0 0 0 0 0
723 4 C 1.008 4.13038 8.66095 -17.3158 0 0 0 0 0 0
37 12 C 15.999 4.99559 1.9663 -12.7465 0 0 0 0 0 0
50 4 C 1.008 2.41764 6.15758 -13.1518 0 0 0 0 0 0
668 4 C 1.008 7.2263 4.73159 -12.9114 0 0 0 0 0 0
1535 4 C 1.008 7.50912 8.99418 -20.2625 0 0 0 0 0 1
34 12 C 15.999 -6.59583 -1.01385 -9.2615 0 0 0 0 0 0
35 4 C 1.008 -6.63329 -1.91607 -8.8667 0 0 0 0 0 0
36 4 C 1.008 -5.7318 -1.01408 -9.71679 0 0 0 0 0 0
67 12 C 15.999 -7.21511 -2.96156 -12.1562 0 0 0 0 0 0
68 4 C 1.008 -6.53931 -3.47166 -11.6702 0 0 0 0 0 0
76 12 C 15.999 -5.47316 -5.99333 -8.32994 0 0 0 0 0 0
77 4 C 1.008 -5.61939 -5.34584 -9.04268 0 0 0 0 0 0
78 4 C 1.008 -6.37118 -6.02261 -7.92987 0 0 0 0 0 0
88 12 C 15.999 -5.30971 -4.56321 -10.7833 0 0 0 0 0 0
89 4 C 1.008 -4.7091 -4.02808 -10.2188 0 0 0 0 0 0
90 4 C 1.008 -4.651 -5.00432 -11.3666 0 0 0 0 0 0
103 12 C 15.999 -1.86093 -9.14206 -10.8926 0 0 0 0 0 0
104 4 C 1.008 -2.38668 -9.95746 -10.7435 0 0 0 0 0 0
105 4 C 1.008 -2.46752 -8.50544 -10.4513 0 0 0 0 0 0
136 12 C 15.999 -4.04078 -0.669403 -10.443 0 0 0 0 0 0
137 4 C 1.008 -3.4273 -0.867551 -11.188 0 0 0 0 0 0
148 12 C 15.999 -5.42171 -0.625824 -5.31903 0 0 0 0 0 0
150 4 C 1.008 -6.10014 -0.424785 -5.99307 0 0 0 0 0 0
196 12 C 15.999 -3.94338 -7.79648 -9.72233 0 0 0 0 0 0
197 4 C 1.008 -4.63298 -8.18603 -10.302 0 0 0 0 0 0
198 4 C 1.008 -4.5069 -7.19583 -9.19786 0 0 0 0 0 0
199 12 C 15.999 -0.313778 -8.71192 -5.47606 0 0 0 0 0 0
201 4 C 1.008 -1.13532 -8.40639 -5.05884 0 0 0 0 0 0
211 12 C 15.999 -3.66779 -3.07804 -9.16542 0 0 0 0 0 0
212 4 C 1.008 -3.66356 -2.83078 -8.21653 0 0 0 0 0 0
213 4 C 1.008 -3.77394 -2.19763 -9.57985 0 0 0 0 0 0
226 12 C 15.999 -7.08686 -3.20311 -7.67293 0 0 0 0 0 0
227 4 C 1.008 -7.63984 -2.76358 -6.99817 0 0 0 0 0 0
228 4 C 1.008 -7.40301 -4.12481 -7.5884 0 0 0 0 0 0
233 4 C 1.008 -8.98853 -6.21445 -12.2787 0 0 0 0 0 0
243 4 C 1.008 -0.412457 -6.46821 -12.3198 0 0 0 0 0 0
259 12 C 15.999 -0.155792 -2.49445 -11.9132 0 0 0 0 0 0
261 4 C 1.008 -0.54149 -3.13667 -11.2717 0 0 0 0 0 0
265 12 C 15.999 -1.25287 -4.10764 -10.0625 0 0 0 0 0 0
266 4 C 1.008 -2.15487 -3.87217 -9.77059 0 0 0 0 0 0
267 4 C 1.008 -0.817123 -4.28491 -9.20589 0 0 0 0 0 0
289 12 C 15.999 -8.67683 -1.79999 -5.86886 0 0 0 0 0 0
290 4 C 1.008 -8.61207 -1.68611 -4.89579 0 0 0 0 0 0
291 4 C 1.008 -9.63631 -1.97087 -5.9658 0 0 0 0 0 0
334 12 C 15.999 -8.00351 -5.82805 -7.32319 0 0 0 0 0 0
335 4 C 1.008 -8.83914 -6.04351 -7.78789 0 0 0 0 0 0
336 4 C 1.008 -8.08942 -6.43869 -6.55846 0 0 0 0 0 0
364 12 C 15.999 -0.0543323 -4.38676 -7.60269 0 0 0 0 0 0
365 4 C 1.008 -0.651108 -4.25757 -6.83831 0 0 0 0 0 0
391 12 C 15.999 -6.13657 -8.6163 -11.1967 0 0 0 0 0 0
392 4 C 1.008 -6.32592 -8.66223 -12.1586 0 0 0 0 0 0
393 4 C 1.008 -6.6838 -9.36888 -10.8911 0 0 0 0 0 0
433 12 C 15.999 -3.40384 -2.0009 -6.6133 0 0 0 0 0 0
434 4 C 1.008 -4.17471 -1.60753 -6.14968 0 0 0 0 0 0
435 4 C 1.008 -2.83763 -1.20408 -6.70029 0 0 0 0 0 0
439 12 C 15.999 -2.03294 -4.18888 -5.657 0 0 0 0 0 0
440 4 C 1.008 -2.48433 -4.9483 -6.08528 0 0 0 0 0 0
441 4 C 1.008 -2.57464 -3.43665 -5.98448 0 0 0 0 0 0
442 12 C 15.999 -3.12127 -6.33905 -7.01118 0 0 0 0 0 0
443 4 C 1.008 -2.75535 -6.82611 -7.76535 0 0 0 0 0 0
444 4 C 1.008 -4.02117 -6.14716 -7.36504 0 0 0 0 0 0
457 12 C 15.999 -2.94664 -7.68819 -4.61749 0 0 0 0 0 0
458 4 C 1.008 -2.94226 -7.19276 -5.46694 0 0 0 0 0 0
459 4 C 1.008 -3.91168 -7.65827 -4.41716 0 0 0 0 0 0
514 12 C 15.999 -9.06246 -0.168468 -10.0753 0 0 0 0 0 0
515 4 C 1.008 -8.89399 -0.0638898 -11.0406 0 0 0 0 0 0
516 4 C 1.008 -8.15617 -0.40306 -9.78173 0 0 0 0 0 0
544 12 C 15.999 -7.48706 -6.19858 -11.4193 0 0 0 0 0 0
545 4 C 1.008 -7.05107 -7.05118 -11.2296 0 0 0 0 0 0
546 4 C 1.008 -6.79368 -5.57133 -11.1482 0 0 0 0 0 0
547 12 C 15.999 -9.52224 -2.88642 -10.6011 0 0 0 0 0 0
548 4 C 1.008 -8.71213 -2.94393 -11.1464 0 0 0 0 0 0
549 4 C 1.008 -9.51051 -1.9485 -10.3436 0 0 0 0 0 0
602 4 C 1.008 -0.174235 -8.36136 -11.0585 0 0 0 0 0 0
1542 14 C 35.45 -8.49705 -7.89655 -5.01958 0 0 0 0 0 0
200 4 C 1.008 -0.273831 -9.64515 -5.19668 0 0 0 0 0 0
167 4 C 1.008 -7.99457 -0.363305 -6.70458 0 0 0 0 0 0
578 4 C 1.008 -7.72701 -9.64691 -6.18945 0 0 0 0 1 0
695 4 C 1.008 -2.87463 -9.45195 -4.28775 0 0 0 0 1 0
642 4 C 1.008 -6.4734 -7.81897 -4.32081 0 0 0 0 0 0
607 12 C 15.999 7.11094 -9.84604 -12.4128 0 0 0 0 0 0
31 12 C 15.999 1.33237 -0.687665 -10.3365 0 0 0 0 0 0
32 4 C 1.008 1.4952 -1.35444 -9.63698 0 0 0 0 0 0
33 4 C 1.008 0.759272 -1.19413 -10.9508 0 0 0 0 0 0
55 12 C 15.999 9.6456 -6.39063 -8.30078 0 0 0 0 0 0
56 4 C 1.008 9.16591 -5.72369 -7.7651 0 0 0 0 0 0
57 4 C 1.008 9.46287 -6.0514 -9.20237 0 0 0 0 0 0
58 12 C 15.999 2.72795 -4.2231 -10.6121 0 0 0 0 0 0
59 4 C 1.008 2.68231 -5.12791 -10.2319 0 0 0 0 0 0
60 4 C 1.008 2.23545 -4.33624 -11.4534 0 0 0 0 0 0
73 12 C 15.999 8.31264 -4.51827 -6.82251 0 0 0 0 0 0
74 4 C 1.008 7.4676 -4.19232 -7.20189 0 0 0 0 0 0
75 4 C 1.008 8.71916 -3.67437 -6.5579 0 0 0 0 0 0
85 12 C 15.999 5.84223 -5.94544 -12.2804 0 0 0 0 0 0
86 4 C 1.008 5.54654 -6.71339 -11.7452 0 0 0 0 0 0
87 4 C 1.008 6.04062 -5.28548 -11.5804 0 0 0 0 0 0
100 12 C 15.999 4.87757 -7.48751 -8.50103 0 0 0 0 0 0
101 4 C 1.008 3.98159 -7.16179 -8.72653 0 0 0 0 0 0
102 4 C 1.008 5.12924 -7.82465 -9.38675 0 0 0 0 0 0
121 12 C 15.999 7.10979 -0.634742 -7.8743 0 0 0 0 0 0
122 4 C 1.008 6.43185 -0.107926 -8.3521 0 0 0 0 0 0
123 4 C 1.008 7.90487 -0.130937 -8.15868 0 0 0 0 0 0
127 12 C 15.999 3.71249 -2.71573 -6.44901 0 0 0 0 0 0
128 4 C 1.008 3.67108 -1.84983 -5.98124 0 0 0 0 0 0
129 4 C 1.008 3.06614 -2.56832 -7.17855 0 0 0 0 0 0
190 12 C 15.999 5.48132 -3.8232 -4.61756 0 0 0 0 0 0
191 4 C 1.008 4.85452 -3.40674 -5.23946 0 0 0 0 0 0
192 4 C 1.008 5.5764 -4.70558 -5.03317 0 0 0 0 0 0
202 12 C 15.999 2.74722 -5.25413 -5.56038 0 0 0 0 0 0
203 4 C 1.008 2.45232 -4.98928 -4.66094 0 0 0 0 0 0
204 4 C 1.008 2.97247 -4.38438 -5.9384 0 0 0 0 0 0
238 12 C 15.999 1.90328 -2.69222 -8.51212 0 0 0 0 0 0
239 4 C 1.008 2.25178 -3.2501 -9.24429 0 0 0 0 0 0
240 4 C 1.008 1.15702 -3.24927 -8.19658 0 0 0 0 0 0
250 12 C 15.999 2.33215 -6.65511 -9.36369 0 0 0 0 0 0
251 4 C 1.008 1.81253 -6.75034 -8.5361 0 0 0 0 0 0
252 4 C 1.008 1.7044 -7.0484 -10.0098 0 0 0 0 0 0
260 4 C 1.008 0.489992 -3.06686 -12.374 0 0 0 0 0 0
309 4 C 1.008 4.18035 -1.00192 -11.5414 0 0 0 0 0 0
352 12 C 15.999 0.994278 -6.83036 -6.97825 0 0 0 0 0 0
353 4 C 1.008 1.64104 -6.45607 -6.34204 0 0 0 0 0 0
354 4 C 1.008 0.573748 -7.54237 -6.4428 0 0 0 0 0 0
366 4 C 1.008 0.280132 -5.29285 -7.42215 0 0 0 0 0 0
376 12 C 15.999 5.29954 -6.20006 -6.06115 0 0 0 0 0 0
377 4 C 1.008 4.35094 -6.11781 -5.8359 0 0 0 0 0 0
378 4 C 1.008 5.23642 -6.61683 -6.94623 0 0 0 0 0 0
379 12 C 15.999 4.68303 -2.68873 -11.8835 0 0 0 0 0 0
380 4 C 1.008 3.95657 -3.21379 -11.489 0 0 0 0 0 0
381 4 C 1.008 5.44391 -3.09699 -11.416 0 0 0 0 0 0
451 12 C 15.999 3.80607 -0.463873 -4.86417 0 0 0 0 0 0
529 12 C 15.999 6.51682 -4.10272 -10.4043 0 0 0 0 0 0
530 4 C 1.008 7.45936 -4.38573 -10.4229 0 0 0 0 0 0
531 4 C 1.008 6.40415 -3.86703 -9.46003 0 0 0 0 0 0
532 12 C 15.999 6.14061 -3.1873 -7.82735 0 0 0 0 0 0
533 4 C 1.008 5.2564 -3.09259 -7.42484 0 0 0 0 0 0
534 4 C 1.008 6.4226 -2.24914 -7.89916 0 0 0 0 0 0
551 4 C 1.008 6.86485 -6.55188 -5.16456 0 0 0 0 0 0
552 4 C 1.008 8.10142 -5.85819 -5.63664 0 0 0 0 0 0
574 12 C 15.999 6.4603 -9.27434 -6.88902 0 0 0 0 0 0
575 4 C 1.008 5.95262 -8.63504 -7.42463 0 0 0 0 0 0
576 4 C 1.008 7.36806 -8.91134 -6.93453 0 0 0 0 0 0
601 12 C 15.999 0.570476 -7.73585 -11.1789 0 0 0 0 0 0
603 4 C 1.008 1.23332 -8.27194 -11.6649 0 0 0 0 0 0
604 12 C 15.999 5.08068 -8.30834 -11.1416 0 0 0 0 0 0
605 4 C 1.008 5.69527 -8.92807 -11.5849 0 0 0 0 0 0
606 4 C 1.008 4.226 -8.5388 -11.56 0 0 0 0 0 0
661 12 C 15.999 8.77077 -1.8219 -5.99878 0 0 0 0 0 0
662 4 C 1.008 8.28864 -1.93853 -5.14658 0 0 0 0 0 0
663 4 C 1.008 8.06242 -1.484 -6.58932 0 0 0 0 0 0
673 12 C 15.999 9.07639 -5.0472 -10.6403 0 0 0 0 0 0
674 4 C 1.008 9.47475 -5.45907 -11.4349 0 0 0 0 0 0
675 4 C 1.008 9.64467 -4.24017 -10.5764 0 0 0 0 0 0
679 12 C 15.999 9.24779 -8.72389 -6.87878 0 0 0 0 0 0
680 4 C 1.008 9.97754 -8.51836 -6.25731 0 0 0 0 0 0
681 4 C 1.008 9.39728 -8.00221 -7.52689 0 0 0 0 0 0
307 12 C 15.999 3.92861 -0.110287 -11.2195 0 0 0 0 0 0
308 4 C 1.008 2.97787 -0.238901 -11.0219 0 0 0 0 0 0
654 4 C 1.008 9.45937 -0.112255 -5.85831 0 0 0 0 0 0
453 4 C 1.008 4.60272 -0.197846 -4.35414 0 0 0 0 0 0
550 12 C 15.999 7.79622 -6.41665 -4.89126 0 0 0 0 0 0
717 4 C 1.008 -4.0736 8.72543 -12.3516 0 0 0 0 0 0
138 4 C 1.008 -3.61212 0.107632 -10.0199 0 0 0 0 0 0
445 12 C 15.999 -2.00001 0.375417 -6.76055 0 0 0 0 0 0
446 4 C 1.008 -1.12844 0.827548 -6.74066 0 0 0 0 0 0
447 4 C 1.008 -2.37912 0.769018 -7.57587 0 0 0 0 0 0
40 12 C 15.999 -6.02474 3.08883 -11.5406 0 0 0 0 0 0
41 4 C 1.008 -6.00094 2.18751 -11.9343 0 0 0 0 0 0
42 4 C 1.008 -5.0609 3.27147 -11.5135 0 0 0 0 0 0
52 12 C 15.999 -1.19491 2.33637 -11.2044 0 0 0 0 0 0
53 4 C 1.008 -0.724822 2.25716 -12.0641 0 0 0 0 0 0
54 4 C 1.008 -0.434569 2.255 -10.589 0 0 0 0 0 0
82 12 C 15.999 -2.96163 1.56016 -9.13035 0 0 0 0 0 0
83 4 C 1.008 -3.51718 2.3235 -8.86491 0 0 0 0 0 0
84 4 C 1.008 -2.40335 1.94977 -9.83547 0 0 0 0 0 0
91 12 C 15.999 -4.57541 3.64264 -8.01199 0 0 0 0 0 0
92 4 C 1.008 -4.74824 4.60069 -8.11734 0 0 0 0 0 0
93 4 C 1.008 -5.4382 3.34338 -7.66702 0 0 0 0 0 0
133 12 C 15.999 -3.41705 3.79624 -11.8633 0 0 0 0 0 0
135 4 C 1.008 -2.5843 3.28246 -11.7776 0 0 0 0 0 0
142 12 C 15.999 -3.10869 4.19917 -5.72698 0 0 0 0 0 0
143 4 C 1.008 -3.84154 4.7486 -5.37165 0 0 0 0 0 0
144 4 C 1.008 -3.52711 3.8712 -6.54916 0 0 0 0 0 0
149 4 C 1.008 -5.3938 0.251355 -4.88408 0 0 0 0 0 0
154 12 C 15.999 -5.36199 5.68413 -5.05747 0 0 0 0 0 0
155 4 C 1.008 -5.27537 6.07538 -5.95484 0 0 0 0 0 0
156 4 C 1.008 -6.33211 5.5613 -5.00457 0 0 0 0 0 0
166 12 C 15.999 -7.38986 0.330569 -7.04237 0 0 0 0 0 0
168 4 C 1.008 -7.13487 -0.0538068 -7.90976 0 0 0 0 0 0
169 12 C 15.999 -8.63368 3.44998 -10.8087 0 0 0 0 0 0
170 4 C 1.008 -7.73375 3.18574 -11.1001 0 0 0 0 0 0
171 4 C 1.008 -8.44507 3.76811 -9.90193 0 0 0 0 0 0
175 12 C 15.999 -0.379618 4.42827 -5.59927 0 0 0 0 0 0
176 4 C 1.008 -0.242586 5.01531 -4.82391 0 0 0 0 0 0
177 4 C 1.008 -1.3585 4.34387 -5.5877 0 0 0 0 0 0
193 12 C 15.999 -6.94679 2.98577 -6.58794 0 0 0 0 0 0
194 4 C 1.008 -6.47212 2.75329 -5.758 0 0 0 0 0 0
195 4 C 1.008 -7.2265 2.07472 -6.84242 0 0 0 0 0 0
285 4 C 1.008 -5.09872 0.0441765 -11.9033 0 0 0 0 0 0
319 12 C 15.999 -2.0934 6.31929 -8.22797 0 0 0 0 0 0
320 4 C 1.008 -1.38258 6.99012 -8.15636 0 0 0 0 0 0
321 4 C 1.008 -1.72868 5.61558 -7.67619 0 0 0 0 0 0
340 12 C 15.999 -8.41464 4.6177 -8.30165 0 0 0 0 0 0
341 4 C 1.008 -7.83528 4.11329 -7.69403 0 0 0 0 0 0
342 4 C 1.008 -9.20567 4.74292 -7.7323 0 0 0 0 0 0
482 4 C 1.008 -9.48318 4.41261 -12.0696 0 0 0 0 0 0
483 4 C 1.008 -9.53458 5.90188 -12.0266 0 0 0 0 0 0
563 4 C 1.008 -8.00322 4.32493 -5.4006 0 0 0 0 0 0
565 12 C 15.999 -4.85432 6.41901 -7.64201 0 0 0 0 0 0
566 4 C 1.008 -5.27975 7.20089 -8.0593 0 0 0 0 0 0
567 4 C 1.008 -3.91457 6.58232 -7.85553 0 0 0 0 0 0
577 12 C 15.999 -7.52193 9.45326 -6.56474 0 0 0 0 0 0
579 4 C 1.008 -8.10971 8.89121 -6.03293 0 0 0 0 0 0
580 12 C 15.999 -5.97642 8.71165 -8.73443 0 0 0 0 0 0
581 4 C 1.008 -6.44944 9.03984 -7.93333 0 0 0 0 0 0
582 4 C 1.008 -6.63205 8.94067 -9.42234 0 0 0 0 0 0
584 4 C 1.008 -0.197213 9.05191 -7.9 0 0 0 0 0 0
592 12 C 15.999 -8.51164 6.55512 -10.3035 0 0 0 0 0 0
593 4 C 1.008 -8.3546 5.97548 -9.52672 0 0 0 0 0 0
594 4 C 1.008 -7.6889 6.37225 -10.8132 0 0 0 0 0 0
595 12 C 15.999 -6.2996 5.82929 -11.7001 0 0 0 0 0 0
596 4 C 1.008 -6.21432 4.85244 -11.692 0 0 0 0 0 0
597 4 C 1.008 -5.42595 6.09143 -11.3432 0 0 0 0 0 0
598 12 C 15.999 -3.73404 6.11939 -10.4903 0 0 0 0 0 0
599 4 C 1.008 -3.51969 5.29404 -10.9779 0 0 0 0 0 0
600 4 C 1.008 -3.08063 6.08053 -9.76236 0 0 0 0 0 0
682 12 C 15.999 -3.77583 8.84801 -10.5293 0 0 0 0 0 0
683 4 C 1.008 -3.73493 7.86803 -10.5389 0 0 0 0 0 0
684 4 C 1.008 -4.48614 8.98741 -9.87157 0 0 0 0 0 0
690 4 C 1.008 -1.35912 8.70741 -4.50298 0 0 0 0 0 0
691 12 C 15.999 -7.79778 9.18922 -10.8168 0 0 0 0 0 0
692 4 C 1.008 -8.2103 9.32055 -11.6969 0 0 0 0 0 0
693 4 C 1.008 -8.2117 8.34272 -10.5616 0 0 0 0 0 0
585 4 C 1.008 -0.197361 8.27076 -6.60774 0 0 0 0 0 0
688 12 C 15.999 -0.489435 8.47701 -4.89927 0 0 0 0 0 0
689 4 C 1.008 -0.241121 7.68771 -4.37339 0 0 0 0 0 0
293 4 C 1.008 -2.20386 0.198558 -4.95156 0 0 0 0 0 0
256 12 C 15.999 -6.02901 1.87283 -4.26569 0 0 0 0 0 0
397 12 C 15.999 -9.16222 7.76959 -4.90876 0 0 0 0 0 0
399 4 C 1.008 -8.91469 6.84319 -5.10822 0 0 0 0 0 0
414 4 C 1.008 -9.37908 1.29877 -4.61614 0 0 0 0 0 0
562 12 C 15.999 -8.09793 5.14176 -4.88563 0 0 0 0 0 0
278 4 C 1.008 1.2518 1.74558 -6.25333 0 0 0 0 0 0
279 4 C 1.008 0.0954275 2.71492 -6.24072 0 0 0 0 0 0
38 4 C 1.008 4.60821 1.18002 -12.3151 0 0 0 0 0 0
39 4 C 1.008 5.12333 2.55427 -11.9764 0 0 0 0 0 0
49 12 C 15.999 2.03343 6.63352 -12.393 0 0 0 0 0 0
51 4 C 1.008 1.11111 6.34984 -12.4797 0 0 0 0 0 0
97 12 C 15.999 5.20977 3.50384 -10.4807 0 0 0 0 0 0
98 4 C 1.008 4.33253 3.60025 -10.0343 0 0 0 0 0 0
99 4 C 1.008 5.55264 4.41429 -10.3947 0 0 0 0 0 0