ITEM: TIMESTEP
0
ITEM: NUMBER OF ATOMS
1542
ITEM: BOX BOUNDS pp pp pp
-1.0093999999999999e+01 1.0093999999999999e+01
-9.9900000000000002e+00 9.9900000000000002e+00
-2.0736999999999998e+01 2.0736999999999998e+01
ITEM: ATOMS id type xs ys zs
43 12 0.0658939 0.340499 0.131979
44 4 0.0532822 0.386373 0.128466
45 4 0.0236422 0.321176 0.138889
46 12 0.0650584 0.456615 0.198909
48 4 0.102797 0.484527 0.193949
61 12 0.305507 0.214995 0.196495
62 4 0.306053 0.259058 0.186212
63 4 0.283549 0.189343 0.179347
69 4 0.119662 0.314033 0.193323
72 4 0.341868 0.375876 0.194946
116 4 0.497818 0.493311 0.0993193
130 12 0.283238 0.49604 0.168547
131 4 0.273605 0.475865 0.14744
132 4 0.310815 0.462022 0.178797
160 12 0.248617 0.456824 0.106398
161 4 0.219128 0.491595 0.0975513
162 4 0.221843 0.417257 0.103659
209 4 0.485326 0.157733 0.0498352
210 4 0.481774 0.176343 0.0149752
214 12 0.300231 0.332298 0.16338
215 4 0.252654 0.322105 0.16183
216 4 0.312014 0.324168 0.140674
229 12 0.364443 0.200525 0.0126255
230 4 0.349394 0.176461 0.03173
231 4 0.349113 0.245276 0.0185448
232 12 0.0324124 0.235229 0.184805
234 4 0.0521297 0.207836 0.167778
235 12 0.0709556 0.222682 0.0711383
236 4 0.100047 0.247994 0.0566004
237 4 0.0424836 0.257914 0.0790996
241 12 0.441804 0.211899 0.183079
242 4 0.396926 0.210375 0.19205
244 12 0.177762 0.281411 0.153665
245 4 0.138209 0.299812 0.142892
246 4 0.18591 0.240408 0.141727
247 12 0.31834 0.294405 0.100479
248 4 0.366181 0.287869 0.102425
249 4 0.312142 0.299536 0.0771758
253 12 0.293144 0.310787 0.0355837
254 4 0.246488 0.31613 0.0301504
255 4 0.314567 0.347281 0.0239328
262 12 0.250303 0.150424 0.144489
263 4 0.213196 0.11962 0.148477
264 4 0.287923 0.119648 0.145682
313 12 0.112291 0.44078 0.0403606
314 4 0.130774 0.476069 0.0539687
315 4 0.077389 0.466621 0.0297401
361 12 0.445453 0.265075 0.122119
362 4 0.484679 0.293944 0.123647
363 4 0.441911 0.250968 0.144731
367 12 0.485914 0.110866 0.140938
368 4 0.480707 0.15014 0.154775
373 12 0.298305 0.159272 0.0700984
374 4 0.284172 0.188047 0.0877004
375 4 0.342867 0.147254 0.0774867
385 12 0.139796 0.310278 0.0294338
386 4 0.130424 0.357413 0.0350954
387 4 0.121529 0.308284 0.00800784
430 12 0.335877 0.496881 0.05272
431 4 0.309223 0.474707 0.0691728
432 4 0.356325 0.459025 0.0413384
436 12 0.397135 0.398783 0.0165003
438 4 0.443283 0.390597 0.0232192
556 12 0.0580991 0.156891 0.130204
557 4 0.0125056 0.145643 0.123557
558 4 0.0728923 0.176618 0.109871
610 12 0.145622 0.0760953 0.162573
611 4 0.110142 0.0982666 0.150447
612 4 0.132717 0.0289519 0.160771
613 12 0.0779737 0.0866778 0.0470738
614 4 0.120002 0.0969609 0.0364407
615 4 0.0678672 0.12982 0.0567341
616 12 0.360366 0.0772285 0.1612
617 4 0.40324 0.0829477 0.150568
618 4 0.374271 0.0798702 0.183821
628 12 0.205383 0.122183 0.0250095
629 4 0.234091 0.0859554 0.0188343
630 4 0.230596 0.141266 0.0430065
631 12 0.430232 0.154357 0.0844979
632 4 0.448774 0.126179 0.101465
633 4 0.436942 0.198359 0.094595
28 12 0.606189 0.496522 0.159791
30 4 0.572001 0.482278 0.14469
64 12 0.674839 0.225785 0.153938
65 4 0.702661 0.218199 0.173212
66 4 0.706782 0.248758 0.140099
115 12 0.533553 0.462255 0.10523
117 4 0.559668 0.461518 0.085518
118 12 0.531564 0.377725 0.0274991
119 4 0.565885 0.404737 0.0376021
120 4 0.558103 0.342236 0.0182327
124 12 0.705344 0.480881 0.116146
125 4 0.670937 0.488018 0.132642
126 4 0.737128 0.455316 0.129064
145 12 0.640926 0.439731 0.0614662
146 4 0.663646 0.457537 0.0806383
147 4 0.669776 0.458258 0.0445743
157 12 0.822976 0.0634855 0.0624835
158 4 0.786603 0.0793474 0.0758243
159 4 0.84555 0.103512 0.055028
205 12 0.730452 0.491115 0.018558
206 4 0.772404 0.468065 0.0164903
208 12 0.514108 0.167381 0.0314149
217 12 0.55651 0.340117 0.132034
218 4 0.545789 0.384848 0.123652
219 4 0.592035 0.326942 0.117123
223 12 0.598936 0.308603 0.193623
224 4 0.578996 0.331544 0.175061
225 4 0.621314 0.272901 0.181661
274 12 0.645374 0.185803 0.047949
275 4 0.60269 0.17276 0.0383444
276 4 0.643596 0.233772 0.0447754
280 12 0.655496 0.313547 0.0887272
281 4 0.701591 0.307978 0.0950007
282 4 0.656156 0.354693 0.0760029
298 12 0.862878 0.339745 0.074466
299 4 0.840788 0.331892 0.0538191
300 4 0.887871 0.380342 0.0682188
355 12 0.600231 0.152811 0.111525
356 4 0.610261 0.170239 0.0899899
357 4 0.62429 0.184794 0.125163
369 4 0.529699 0.119384 0.131411
496 12 0.900283 0.459934 0.14721
497 4 0.855203 0.445656 0.153168
498 4 0.918641 0.474238 0.16755
505 12 0.921409 0.451408 0.0519031
506 4 0.950119 0.470399 0.0353001
507 4 0.912282 0.491294 0.0647152
508 12 0.801484 0.321429 0.0134056
510 4 0.795658 0.274167 0.00791492
511 12 0.779863 0.402462 0.157431
512 4 0.778387 0.356529 0.149511
513 4 0.756738 0.398706 0.17821
523 12 0.773018 0.186085 0.00993091
524 4 0.812427 0.165431 0.0189712
525 4 0.73803 0.175892 0.0252717
526 12 0.778114 0.281165 0.119052
527 4 0.798226 0.236867 0.122427
528 4 0.809797 0.301342 0.1039
541 12 0.81569 0.150846 0.131103
542 4 0.826313 0.124704 0.150225
543 4 0.7791 0.123636 0.122327
553 12 0.910123 0.149081 0.0325
554 4 0.935856 0.114697 0.0216296
555 4 0.9349 0.188676 0.0266428
607 12 0.848646 0.0537162 0.185607
608 4 0.87662 0.0215946 0.173655
609 4 0.879053 0.0919696 0.187958
619 12 0.628454 0.0878304 0.194949
620 4 0.638235 0.105011 0.173684
621 4 0.63492 0.0392107 0.191819
622 12 0.717332 0.0768396 0.105759
623 4 0.672062 0.0930466 0.103546
624 4 0.711995 0.0291937 0.099962
649 12 0.927851 0.325924 0.134913
650 4 0.920072 0.373015 0.139862
651 4 0.909606 0.323284 0.113238
658 12 0.912197 0.174964 0.18267
659 4 0.95589 0.195903 0.184784
660 4 0.891564 0.205323 0.167582
676 12 0.938814 0.141033 0.10148
677 4 0.894787 0.143662 0.111082
678 4 0.928952 0.137677 0.0786938
1439 4 0.697279 0.303086 0.00264595
94 12 0.0720944 0.626946 0.104501
95 4 0.0582593 0.647614 0.084147
96 4 0.0828534 0.666048 0.117573
180 4 0.494283 0.937661 0.123353
181 12 0.196448 0.828723 0.160996
182 4 0.199982 0.813905 0.183509
183 4 0.166503 0.795103 0.151845
268 12 0.435705 0.551018 0.088401
269 4 0.400079 0.535938 0.0740394
270 4 0.409693 0.564728 0.10744
284 4 0.225651 0.521651 0.198453
288 4 0.499059 0.607108 0.0828575
310 12 0.321114 0.704166 0.171164
311 4 0.337291 0.744962 0.16063
312 4 0.274379 0.707579 0.1666
316 12 0.360426 0.591885 0.138156
317 4 0.35307 0.631709 0.151296
318 4 0.332907 0.559223 0.149509
322 12 0.321928 0.826288 0.13808
323 4 0.275035 0.833069 0.143555
324 4 0.340795 0.865351 0.149276
343 12 0.441257 0.665474 0.0153703
345 4 0.407794 0.661098 0.0323477
346 12 0.339853 0.684556 0.0620691
347 4 0.346463 0.665684 0.0832682
348 4 0.346573 0.732577 0.0660761
349 12 0.163102 0.543226 0.0775995
350 4 0.12827 0.567787 0.0892841
351 4 0.178857 0.57899 0.0632789
358 12 0.484481 0.761853 0.0927621
359 4 0.441509 0.783292 0.0889611
370 12 0.365229 0.816458 0.0756271
371 4 0.360105 0.858257 0.0635071
372 4 0.344525 0.82734 0.0964276
382 12 0.210671 0.643867 0.0386468
383 4 0.246118 0.670505 0.0480346
384 4 0.236095 0.620287 0.0220912
394 12 0.0986701 0.747645 0.137316
395 4 0.064897 0.762229 0.152413
396 4 0.0872527 0.772338 0.1174
404 4 0.495913 0.738629 0.0229386
415 12 0.307177 0.583726 0.00207614
416 4 0.319132 0.55744 0.0212053
475 12 0.383102 0.926874 0.0334358
476 4 0.430482 0.925517 0.0384366
477 4 0.383983 0.944997 0.0117397
478 12 0.0580696 0.674165 0.0425331
479 4 0.103216 0.669623 0.034893
480 4 0.0364851 0.637758 0.0304884
625 12 0.0696802 0.80728 0.0802916
626 4 0.05904 0.774372 0.0638103
627 4 0.0725326 0.848029 0.0675669
643 12 0.189781 0.874569 0.0244511
644 4 0.163673 0.904301 0.0375002
645 4 0.155799 0.850324 0.0126341
709 12 0.119 0.941374 0.165599
710 4 0.0770125 0.925082 0.157756
711 4 0.148772 0.903825 0.160443
712 12 0.0620408 0.945313 0.0548693
713 4 0.0695127 0.990019 0.0458761
714 4 0.0475039 0.957002 0.0762388
715 12 0.353227 0.938755 0.170192
716 4 0.346417 0.984923 0.163289
717 4 0.372552 0.943879 0.191316
1470 4 0.330482 0.840139 0.00648331
1541 14 0.013506 0.541649 0.00639117
29 4 0.597083 0.544909 0.160046
79 12 0.573064 0.623029 0.145322
80 4 0.567592 0.627816 0.122043
81 4 0.551162 0.663733 0.152961
106 12 0.651977 0.789088 0.164201
107 4 0.67434 0.74535 0.161386
108 4 0.691197 0.818156 0.163572
109 12 0.721119 0.67687 0.152813
110 4 0.710027 0.642484 0.137453
111 4 0.728736 0.650598 0.172501
151 12 0.520102 0.74774 0.155794
152 4 0.562223 0.771396 0.156803
153 4 0.504178 0.758672 0.134155
163 12 0.869998 0.747034 0.024243
164 4 0.900883 0.784768 0.0272917
165 4 0.898384 0.714829 0.0137689
178 12 0.529762 0.916381 0.111936
179 4 0.517243 0.922389 0.0893011
184 12 0.651289 0.867482 0.0376489
185 4 0.686823 0.840536 0.0277575
186 4 0.64595 0.844882 0.0584974
187 12 0.633686 0.834557 0.101161
188 4 0.593601 0.860193 0.106919
189 4 0.641535 0.810315 0.121162
207 4 0.74379 0.537505 0.0208942
286 12 0.537903 0.636772 0.0816518
287 4 0.517536 0.680741 0.0846111
304 12 0.82449 0.74616 0.0882133
305 4 0.7952 0.70904 0.0925123
306 4 0.836064 0.740064 0.0655071
328 12 0.716034 0.657059 0.0283429
329 4 0.729505 0.640856 0.0496728
330 4 0.669633 0.641683 0.0278206
331 12 0.944086 0.858466 0.0342978
332 4 0.981478 0.888732 0.0354785
333 4 0.906804 0.887635 0.0397327
337 12 0.755968 0.593025 0.0853831
338 4 0.734655 0.554603 0.0957527
339 4 0.802568 0.580509 0.0884079
360 4 0.506561 0.772478 0.0723121
403 12 0.525308 0.773661 0.0312581
405 4 0.562808 0.768939 0.0170018
409 12 0.741532 0.788172 0.00827391
410 4 0.731572 0.742775 0.015823
411 4 0.789831 0.785802 0.00957548
421 12 0.589967 0.615329 0.0218949
422 4 0.572564 0.616659 0.0440869
423 4 0.550202 0.620518 0.00951942
493 12 0.883286 0.549194 0.0972622
494 4 0.918685 0.580294 0.10174
495 4 0.889681 0.515745 0.114316
559 12 0.756273 0.873748 0.157728
560 4 0.790301 0.870114 0.140797
561 4 0.783754 0.886514 0.175998
634 12 0.515884 0.906579 0.0452289
635 4 0.56131 0.915134 0.0386381
636 4 0.513225 0.859163 0.0391273
637 12 0.857536 0.865815 0.113399
638 4 0.851019 0.818846 0.106685
639 4 0.856305 0.887363 0.0922713
664 12 0.915689 0.949354 0.157121
665 4 0.898084 0.926867 0.137976
666 4 0.922851 0.909608 0.170586
667 12 0.928726 0.83378 0.191711
669 4 0.974193 0.81764 0.194255
685 12 0.833584 0.93175 0.0564697
686 4 0.78843 0.931225 0.0646341
687 4 0.839612 0.98077 0.0561083
718 12 0.664887 0.959436 0.189216
719 4 0.684033 0.933595 0.171648
721 12 0.705378 0.948598 0.0849759
722 4 0.682323 0.938257 0.0650367
723 4 0.690734 0.910442 0.0978934
34 12 0.143324 0.448423 0.28541
35 4 0.150587 0.408159 0.298352
36 4 0.186265 0.452859 0.274915
47 4 0.0859859 0.412767 0.201652
67 12 0.126997 0.337313 0.2137
68 4 0.162419 0.309705 0.222611
70 12 0.355579 0.409794 0.210728
71 4 0.400944 0.395399 0.215544
76 12 0.228711 0.159509 0.295787
77 4 0.213949 0.181625 0.276073
78 4 0.19035 0.168577 0.309761
88 12 0.21386 0.248188 0.243912
89 4 0.242961 0.275219 0.257647
90 4 0.245617 0.230752 0.228005
103 12 0.402759 0.058581 0.224127
104 4 0.411417 0.0112765 0.228212
105 4 0.363621 0.0649889 0.237831
136 12 0.276951 0.452597 0.26017
137 4 0.308294 0.43847 0.243151
138 4 0.304605 0.48549 0.271761
148 12 0.220992 0.478361 0.362493
150 4 0.178398 0.462646 0.354548
196 12 0.28856 0.0537072 0.26255
197 4 0.254064 0.0574394 0.246182
198 4 0.272561 0.0878445 0.277486
199 12 0.498766 0.0906138 0.349925
201 4 0.450908 0.0854297 0.350854
211 12 0.281669 0.327456 0.28735
212 4 0.244239 0.327191 0.302634
213 4 0.279096 0.373325 0.279214
226 12 0.169477 0.330287 0.323194
227 4 0.144522 0.356057 0.33925
228 4 0.151887 0.285154 0.326825
233 4 0.0521798 0.216933 0.204593
243 4 0.468059 0.194814 0.201215
259 12 0.478151 0.357511 0.229361
261 4 0.460416 0.326919 0.245803
265 12 0.413093 0.292697 0.279403
266 4 0.369081 0.311413 0.283546
267 4 0.437553 0.304845 0.298951
289 12 0.0954032 0.415345 0.360001
290 4 0.092092 0.420957 0.38333
291 4 0.0489839 0.421901 0.353739
334 12 0.115919 0.19951 0.327306
335 4 0.0742987 0.212908 0.317803
336 4 0.101477 0.161898 0.340912
364 12 0.493755 0.304345 0.333085
365 4 0.486341 0.302394 0.356042
391 12 0.175331 0.0906941 0.226291
392 4 0.167508 0.0945932 0.203002
393 4 0.171315 0.0418491 0.228318
433 12 0.329222 0.39836 0.370943
434 4 0.290038 0.426528 0.366841
435 4 0.358794 0.414434 0.353628
439 12 0.340695 0.262796 0.378274
440 4 0.341797 0.240161 0.357305
441 4 0.335546 0.309828 0.371773
442 12 0.350383 0.198146 0.318751
443 4 0.375737 0.219535 0.301539
444 4 0.307087 0.191929 0.308344
445 12 0.410267 0.447619 0.325483
446 4 0.456966 0.454516 0.322273
447 4 0.390695 0.483349 0.312352
457 12 0.359624 0.0726237 0.341988
458 4 0.364616 0.117602 0.332594
459 4 0.312919 0.0735372 0.346807
514 12 0.0263185 0.497137 0.258653
515 4 0.0309985 0.484854 0.235867
516 4 0.0715918 0.489326 0.265934
537 4 0.0453876 0.179159 0.389569
544 12 0.0867959 0.189356 0.240291
545 4 0.11224 0.148024 0.238002
546 4 0.122066 0.219939 0.246283
547 12 0.0402431 0.345973 0.266291
548 4 0.0716252 0.339867 0.248587
549 4 0.0506535 0.39087 0.273213
602 4 0.481687 0.104407 0.225524
1542 14 0.0497339 0.079017 0.367705
31 12 0.540536 0.471495 0.253662
32 4 0.554832 0.445301 0.272354
33 4 0.518733 0.43628 0.241061
55 12 0.905458 0.152822 0.277246
56 4 0.90552 0.186554 0.294545
57 4 0.923383 0.178012 0.259358
58 12 0.621278 0.302352 0.259331
59 4 0.639541 0.257601 0.262672
60 4 0.609685 0.300335 0.236471
73 12 0.902395 0.239025 0.327928
74 4 0.86647 0.272157 0.327126
75 4 0.924996 0.250478 0.347528
85 12 0.743595 0.21334 0.20847
86 4 0.745707 0.17059 0.219836
87 4 0.76097 0.24328 0.225107
100 12 0.7687 0.136892 0.301535
101 4 0.729306 0.14723 0.28854
102 4 0.80306 0.136123 0.285044
121 12 0.872562 0.437906 0.299239
122 4 0.842442 0.47553 0.294967
123 4 0.891951 0.430386 0.278172
127 12 0.683472 0.373735 0.347139
128 4 0.680183 0.410607 0.36279
129 4 0.650072 0.387246 0.331132
190 12 0.77204 0.318661 0.397548
191 4 0.743164 0.33713 0.381102
192 4 0.777474 0.272601 0.389871
200 4 0.512327 0.0438142 0.348811
202 12 0.656063 0.240652 0.359049
203 4 0.631504 0.241229 0.379528
204 4 0.659491 0.288336 0.353866
238 12 0.580122 0.391169 0.30376
239 4 0.597432 0.359073 0.287633
240 4 0.546815 0.363116 0.314459
250 12 0.64855 0.167591 0.269238
251 4 0.611626 0.172049 0.284542
252 4 0.626816 0.146616 0.251052
260 4 0.509099 0.328985 0.217836
309 4 0.696003 0.467275 0.233617
352 12 0.562753 0.189347 0.318767
353 4 0.600464 0.198657 0.332886
354 4 0.540684 0.152202 0.330204
366 4 0.514856 0.260911 0.328474
376 12 0.780588 0.19632 0.365414
377 4 0.732976 0.202719 0.361684
378 4 0.794602 0.186692 0.343379
379 12 0.714771 0.384055 0.215709
380 4 0.673087 0.361573 0.21087
381 4 0.734879 0.352902 0.231157
451 12 0.693329 0.460574 0.398263
520 12 0.895771 0.371025 0.397613
521 4 0.851162 0.351769 0.395828
529 12 0.788006 0.297455 0.25544
530 4 0.835795 0.30115 0.250978
531 4 0.788102 0.299051 0.278964
532 12 0.80247 0.330302 0.321042
533 4 0.759123 0.34633 0.328127
534 4 0.824479 0.372063 0.314645
551 4 0.835311 0.154913 0.391827
552 4 0.886864 0.1056 0.382457
574 12 0.814104 0.0507256 0.346633
575 4 0.79361 0.0820545 0.331324
576 4 0.857643 0.047055 0.336044
601 12 0.517018 0.137956 0.224965
603 4 0.552944 0.11488 0.21377
604 12 0.750653 0.0829336 0.229454
605 4 0.78483 0.0723722 0.213457
606 4 0.709556 0.0774092 0.21749
661 12 0.962201 0.435296 0.348654
662 4 0.942987 0.410478 0.366806
663 4 0.93076 0.424766 0.331442
673 12 0.92012 0.308779 0.243966
674 4 0.937797 0.302666 0.222515
675 4 0.961072 0.31922 0.255902
679 12 0.934454 0.0432078 0.319101
680 4 0.974745 0.0543696 0.331375
681 4 0.936052 0.0773397 0.302327
40 12 0.212592 0.657659 0.242207
41 4 0.201911 0.61292 0.233689
42 4 0.261024 0.654504 0.242826
52 12 0.462905 0.588778 0.253575
53 4 0.484622 0.546895 0.24741
54 4 0.498484 0.607664 0.266664
82 12 0.353144 0.547597 0.289281
83 4 0.329545 0.586171 0.298415
84 4 0.387212 0.569636 0.276213
91 12 0.282886 0.652965 0.31695
92 4 0.282798 0.701763 0.314942
93 4 0.23608 0.645553 0.32138
133 12 0.350718 0.661601 0.232587
134 4 0.348474 0.668546 0.209184
135 4 0.392593 0.637208 0.234965
142 12 0.351144 0.658311 0.374458
143 4 0.318509 0.689783 0.383389
144 4 0.328917 0.646638 0.35419
149 4 0.208251 0.519883 0.373121
154 12 0.256945 0.753393 0.388997
155 4 0.260367 0.771505 0.367087
156 4 0.209879 0.75967 0.393694
166 12 0.0930793 0.557316 0.324803
167 4 0.044937 0.560544 0.322236
168 4 0.104141 0.519739 0.311023
169 12 0.0820373 0.707611 0.25391
170 4 0.123518 0.683575 0.250237
171 4 0.0909285 0.726963 0.275208
175 12 0.467609 0.722239 0.360409
176 4 0.45908 0.767693 0.367825
177 4 0.426254 0.700238 0.367211
193 12 0.157195 0.664111 0.347443
194 4 0.174662 0.643164 0.367009
195 4 0.131075 0.626138 0.338808
278 4 0.4911 0.565969 0.375663
279 4 0.48853 0.628651 0.355964
283 12 0.200537 0.530737 0.218279
285 4 0.223132 0.501424 0.233378
319 12 0.415117 0.785825 0.303614
320 4 0.449449 0.818849 0.298474
321 4 0.440281 0.75245 0.315498
340 12 0.117262 0.77313 0.310284
341 4 0.132798 0.735397 0.323485
342 4 0.113923 0.807858 0.326398
481 12 0.0561546 0.793556 0.201639
482 4 0.061839 0.754136 0.215237
483 4 0.0750357 0.827327 0.215906
563 4 0.106955 0.712537 0.397724
565 12 0.286539 0.791983 0.325623
566 4 0.269377 0.833465 0.316236
567 4 0.333538 0.795747 0.319928
568 12 0.485914 0.854523 0.389867
577 12 0.137043 0.952312 0.33288
578 4 0.0981462 0.971443 0.322987
579 4 0.13442 0.974856 0.353574
580 12 0.254454 0.919714 0.302303
581 4 0.21287 0.929873 0.313751
582 4 0.250141 0.949023 0.283731
584 4 0.48979 0.90605 0.268851
592 12 0.118489 0.855471 0.254137
593 4 0.113624 0.833104 0.274895
594 4 0.155706 0.830052 0.244993
595 12 0.218203 0.788983 0.223716
596 4 0.215379 0.741402 0.229338
597 4 0.263672 0.799235 0.230549
598 12 0.347026 0.795693 0.246918
599 4 0.351916 0.749 0.240068
600 4 0.367155 0.792533 0.268345
682 12 0.400667 0.923332 0.239073
683 4 0.392601 0.876201 0.233996
684 4 0.364942 0.930838 0.254165
690 4 0.457326 0.947809 0.340183
691 12 0.182667 0.958221 0.225711
692 4 0.167414 0.950593 0.203668
693 4 0.156169 0.925276 0.237452
694 12 0.375671 0.939781 0.330689
695 4 0.370157 0.98849 0.330901
696 4 0.333218 0.926023 0.321255
699 4 0.378234 0.966762 0.382854
37 12 0.736165 0.610746 0.210323
38 4 0.713857 0.574664 0.221859
39 4 0.740935 0.644858 0.227035
49 12 0.600212 0.856863 0.219141
50 4 0.606499 0.821849 0.203084
51 4 0.582543 0.832576 0.237295
97 12 0.744783 0.71068 0.256891
98 4 0.699073 0.716976 0.264635
99 4 0.757749 0.756834 0.252439
112 12 0.797138 0.610704 0.346966
113 4 0.792963 0.58279 0.327584
114 4 0.799037 0.655348 0.337005
139 12 0.627263 0.728175 0.287158
140 4 0.624695 0.743894 0.30925
141 4 0.602742 0.685951 0.288811
172 12 0.924751 0.749849 0.395382
173 4 0.921722 0.700861 0.394995
271 12 0.787145 0.544062 0.28822
272 4 0.818641 0.567955 0.274293
273 4 0.749662 0.536373 0.27364
277 12 0.50496 0.583101 0.354889
295 12 0.605963 0.706527 0.358374
296 4 0.557841 0.709368 0.357064
297 4 0.614692 0.729329 0.378634
301 12 0.915146 0.612574 0.381502
302 4 0.871012 0.616933 0.372035
303 4 0.939461 0.599231 0.361997
307 12 0.681391 0.506585 0.245885
308 4 0.633524 0.502005 0.243574
325 12 0.567816 0.605549 0.297087
326 4 0.548877 0.594084 0.318224
327 4 0.593981 0.566217 0.292438
388 12 0.790511 0.843955 0.263233
389 4 0.788219 0.874338 0.244532
390 4 0.83889 0.84039 0.26513
424 12 0.676858 0.592633 0.379331
425 4 0.71928 0.598937 0.368351
426 4 0.648422 0.623221 0.367267
452 4 0.679288 0.506506 0.393451
484 12 0.925278 0.845534 0.272786
485 4 0.930087 0.835926 0.295849
486 4 0.952361 0.884962 0.27006
487 12 0.914109 0.801899 0.33535
488 4 0.881471 0.769043 0.328034
489 4 0.927396 0.782042 0.356174
499 12 0.903921 0.592014 0.262452
500 4 0.941267 0.570748 0.251866
501 4 0.910507 0.639004 0.255873
502 12 0.800831 0.731728 0.31614
503 4 0.774445 0.771997 0.316419
504 4 0.78962 0.714969 0.294559
519 4 0.848137 0.524824 0.393272
570 4 0.529482 0.840834 0.38303
571 12 0.669513 0.897953 0.383024
572 4 0.649458 0.874027 0.364856
573 4 0.671024 0.863328 0.399119
583 12 0.508638 0.882509 0.287239
585 4 0.508685 0.91734 0.303868
586 12 0.617185 0.851877 0.326914
587 4 0.58066 0.852308 0.311451
588 4 0.649341 0.879221 0.315201
589 12 0.719017 0.932207 0.302997
590 4 0.720421 0.970202 0.28851
591 4 0.743212 0.898852 0.29014
647 4 0.823947 0.833054 0.397955
652 12 0.955761 0.56709 0.323076
653 4 0.936619 0.576296 0.301792
654 4 0.952267 0.518585 0.324404
655 12 0.945104 0.717914 0.247201
656 4 0.992991 0.711713 0.249211
657 4 0.939612 0.76381 0.254798
668 4 0.903552 0.796635 0.200031
688 12 0.50501 0.954011 0.343767
689 4 0.509339 0.931854 0.364544
703 12 0.843738 0.9106 0.352466
704 4 0.87007 0.946003 0.342995
705 4 0.872066 0.872058 0.347748
706 12 0.789475 0.937232 0.216006
707 4 0.817664 0.974474 0.209516
708 4 0.745798 0.953674 0.209624
720 4 0.63829 0.9247 0.200193
1540 13 0.750685 0.963794 0.364831
1 10 0.354451 0.438225 0.487934
2 3 0.310775 0.458853 0.478411
3 3 0.345762 0.389396 0.495324
4 3 0.388187 0.440044 0.468816
5 7 0.369752 0.484399 0.51424
6 2 0.351998 0.462736 0.536503
7 8 0.444472 0.498141 0.516574
8 1 0.470466 0.450117 0.521396
221 4 0.484183 0.31447 0.41511
292 12 0.397922 0.440858 0.42392
293 4 0.368456 0.423915 0.406864
294 4 0.438148 0.415045 0.41855
427 12 0.109985 0.439211 0.426074
428 4 0.152456 0.417029 0.424796
429 4 0.102204 0.439787 0.449484
454 12 0.273159 0.292167 0.435647
455 4 0.231473 0.267579 0.433266
456 4 0.29183 0.287168 0.414061
460 12 0.44935 0.235117 0.416176
461 4 0.428447 0.213832 0.43482
462 4 0.410548 0.238741 0.401995
469 12 0.17228 0.199961 0.428229
470 4 0.187056 0.157766 0.418924
471 4 0.167259 0.185968 0.450679
472 12 0.427336 0.0678682 0.450085
473 4 0.421375 0.0371147 0.431866
474 4 0.394217 0.102409 0.446135
535 12 0.0500479 0.222546 0.400353
536 4 0.0951977 0.218199 0.408604
640 12 0.247502 0.0719168 0.427517
641 4 0.290929 0.0767789 0.418332
642 4 0.240176 0.0235885 0.424505
742 12 0.0651115 0.356939 0.591537
744 4 0.021791 0.335457 0.59339
850 12 0.243246 0.433874 0.566802
851 4 0.218888 0.468478 0.554902
852 4 0.207671 0.403253 0.571976
895 12 0.498316 0.164815 0.484386
896 4 0.47191 0.160521 0.50406
897 4 0.479149 0.128486 0.471579
903 4 0.312121 0.296575 0.599048
916 12 0.349429 0.1838 0.455579
917 4 0.334442 0.177046 0.477852
918 4 0.321896 0.222106 0.449595
922 12 0.0593959 0.216978 0.527248
923 4 0.0788571 0.244477 0.509961
924 4 0.024101 0.24596 0.534445
931 12 0.179141 0.28674 0.597875
932 4 0.134227 0.304616 0.594469
933 4 0.175206 0.240723 0.590892
934 12 0.335401 0.303164 0.549842
935 4 0.379017 0.291047 0.558761
936 4 0.323689 0.343434 0.561341
949 12 0.254077 0.150252 0.599915
951 4 0.290883 0.118377 0.599872
994 12 0.0887912 0.441927 0.491368
995 4 0.117074 0.467624 0.506181
996 4 0.0452551 0.449073 0.500833
1036 12 0.452243 0.267896 0.577943
1037 4 0.48975 0.298751 0.580603
1042 12 0.48971 0.10679 0.597248
1048 12 0.304886 0.172481 0.51783
1049 4 0.297491 0.212757 0.530541
1050 4 0.345179 0.155668 0.528308
1060 12 0.0921467 0.303869 0.479553
1061 4 0.0937712 0.351815 0.484093
1062 4 0.0793324 0.302371 0.457205
1225 12 0.0566759 0.154758 0.586189
1226 4 0.0106633 0.143299 0.580501
1227 4 0.0697733 0.172835 0.565161
1285 12 0.0713627 0.0828346 0.503587
1286 4 0.114976 0.0964274 0.49556
1287 4 0.0565141 0.12431 0.513516
1300 12 0.195461 0.124914 0.483595
1301 4 0.218224 0.100904 0.466201
1302 4 0.232681 0.138067 0.497429
1303 12 0.430144 0.154267 0.542189
1304 4 0.445813 0.122552 0.558373
1305 4 0.439945 0.196002 0.553708
16 9 0.58523 0.487866 0.495882
17 3 0.563542 0.443293 0.494791
18 5 0.654265 0.487123 0.500306
19 9 0.688208 0.427274 0.504765
20 3 0.667021 0.385509 0.496142
21 3 0.737489 0.429404 0.504726
220 12 0.502407 0.359911 0.413758
222 4 0.54888 0.351306 0.417562
448 12 0.646395 0.343625 0.452678
449 4 0.652677 0.298131 0.445131
450 4 0.672271 0.368574 0.437104
453 4 0.740366 0.46809 0.402633
463 12 0.587977 0.232065 0.414783
464 4 0.540551 0.221994 0.416537
465 4 0.6076 0.194413 0.426545
466 12 0.652722 0.135832 0.451324
467 4 0.633036 0.0928303 0.455648
468 4 0.64512 0.159145 0.471953
517 12 0.827635 0.489891 0.406096
518 4 0.857192 0.451877 0.402019
522 4 0.917305 0.333469 0.408745
538 12 0.961349 0.0515958 0.433895
539 4 0.996765 0.0546624 0.417892
540 4 0.928189 0.0805415 0.423981
550 12 0.874526 0.132629 0.400909
670 12 0.929653 0.250024 0.423849
671 4 0.974728 0.239606 0.416289
672 4 0.906527 0.208605 0.418226
765 4 0.71205 0.246079 0.596245
817 12 0.679845 0.424607 0.581181
818 4 0.652028 0.459859 0.59056
819 4 0.718948 0.426529 0.595051
847 12 0.807955 0.0651991 0.502846
848 4 0.782364 0.0830571 0.5207
849 4 0.846426 0.0945007 0.501746
904 12 0.553693 0.353229 0.589857
905 4 0.562104 0.40117 0.590959
906 4 0.590793 0.338092 0.576615
958 12 0.62017 0.205921 0.504545
959 4 0.573564 0.205437 0.497553
960 4 0.62677 0.251233 0.512713
964 12 0.65752 0.309185 0.546238
965 4 0.700661 0.288586 0.550151
966 4 0.668004 0.354794 0.553285
979 12 0.875945 0.332983 0.529873
980 4 0.851077 0.323334 0.509998
981 4 0.900688 0.372179 0.522246
1030 12 0.601045 0.151511 0.566492
1031 4 0.607068 0.170483 0.54491
1032 4 0.624235 0.18459 0.57986
1044 4 0.53093 0.118739 0.586051
1106 4 0.816638 0.498362 0.449175
1174 12 0.928407 0.452052 0.505281
1175 4 0.893892 0.467907 0.490841
1176 4 0.925611 0.486663 0.522074
1177 12 0.806803 0.320522 0.473669
1178 4 0.817887 0.333166 0.451859
1179 4 0.79528 0.273226 0.469933
1192 12 0.779597 0.191229 0.458168
1193 4 0.811878 0.155595 0.459385
1194 4 0.738888 0.16677 0.453502
1195 12 0.78126 0.27475 0.572105
1196 4 0.800493 0.229926 0.575363
1197 4 0.81535 0.296112 0.558839
1210 12 0.814038 0.145456 0.583683
1212 4 0.777975 0.118621 0.574539
1222 12 0.922661 0.135757 0.488196
1223 4 0.947824 0.101615 0.476444
1224 4 0.942106 0.176245 0.479551
1294 12 0.715408 0.0731171 0.557493
1295 4 0.669991 0.0892282 0.55905
1296 4 0.708331 0.0258521 0.551555
1324 12 0.930455 0.323554 0.590298
1325 4 0.921964 0.370691 0.59477
1326 4 0.914621 0.320406 0.568106
1351 12 0.938168 0.13902 0.556004
1352 4 0.893126 0.141833 0.564467
1353 4 0.930957 0.136388 0.532888
9 1 0.45269 0.530636 0.538137
10 8 0.474171 0.533641 0.487044
11 1 0.4482 0.582126 0.483216
12 1 0.467855 0.503097 0.46491
25 6 0.330297 0.548153 0.508974
26 11 0.293198 0.551321 0.484591
27 11 0.33665 0.594669 0.529254
256 12 0.187823 0.590224 0.401702
257 4 0.214855 0.59205 0.420949
258 4 0.143645 0.582412 0.410718
397 12 0.0384127 0.859682 0.433036
398 4 0.0789419 0.868887 0.445422
399 4 0.056753 0.827621 0.417949
400 12 0.286623 0.814096 0.447704
401 4 0.321602 0.791447 0.459442
402 4 0.283542 0.786933 0.428144
412 12 0.0614145 0.570835 0.425432
413 4 0.0682305 0.522331 0.424822
414 4 0.0181461 0.575256 0.41549
418 12 0.425584 0.581584 0.415816
419 4 0.394386 0.602828 0.400825
420 4 0.408457 0.536117 0.417485
562 12 0.119987 0.751397 0.40989
564 4 0.113811 0.737095 0.432145
569 4 0.484515 0.836018 0.411935
697 12 0.406 0.973078 0.401583
698 4 0.429667 0.930757 0.402158
724 12 0.242727 0.935579 0.419614
725 4 0.272385 0.900434 0.427059
726 4 0.201317 0.91902 0.428592
793 12 0.084572 0.630141 0.545764
794 4 0.0773174 0.65519 0.526065
795 4 0.090714 0.665648 0.561617
870 4 0.476286 0.925438 0.576079
1003 12 0.324581 0.824688 0.588419
1004 4 0.278815 0.832762 0.595332
1005 4 0.346877 0.863129 0.598449
1021 12 0.401715 0.695466 0.457619
1022 4 0.407604 0.65401 0.445594
1023 4 0.387195 0.679357 0.478514
1024 12 0.167924 0.524151 0.530311
1025 4 0.137374 0.558645 0.53847
1026 4 0.201906 0.55234 0.520686
1033 12 0.49241 0.740978 0.516857
1034 4 0.447001 0.758254 0.518299
1045 12 0.373263 0.810142 0.524495
1046 4 0.370158 0.856768 0.517445
1047 4 0.353193 0.812411 0.54591
1057 12 0.213761 0.652153 0.493289
1058 4 0.238839 0.674351 0.510011
1059 4 0.246222 0.617017 0.487711
1069 12 0.0984227 0.745433 0.590375
1071 4 0.0803331 0.774124 0.573306
1078 12 0.498131 0.79335 0.447394
1079 4 0.465663 0.760424 0.455308
1144 12 0.390471 0.942538 0.503319
1145 4 0.436282 0.929401 0.498779
1146 4 0.385939 0.981822 0.490003
1147 12 0.0846539 0.668323 0.473673
1148 4 0.130993 0.662433 0.480595
1149 4 0.0775269 0.629053 0.460195
1297 12 0.0491691 0.818896 0.538819
1298 4 0.00913126 0.821506 0.525746
1299 4 0.0717224 0.858976 0.531066
1318 12 0.158951 0.865702 0.46253
1319 4 0.154532 0.882491 0.484382
1320 4 0.201605 0.842568 0.462951
1387 12 0.0845895 0.943507 0.512289
1388 4 0.0879875 0.981989 0.497921
1389 4 0.0644889 0.966246 0.530286
13 8 0.547857 0.548681 0.491175
14 1 0.554763 0.582041 0.512537
15 1 0.566359 0.574831 0.469164
22 9 0.689471 0.546977 0.500251
23 3 0.666104 0.58925 0.49559
24 3 0.738814 0.542161 0.49803
174 4 0.934709 0.759367 0.417551
406 12 0.630021 0.742633 0.4228
407 4 0.639278 0.695239 0.422546
408 4 0.664772 0.758728 0.437447
490 12 0.805823 0.646685 0.465752
491 4 0.780788 0.679885 0.454217
492 4 0.846837 0.671577 0.470412
646 12 0.807929 0.845351 0.41906
648 4 0.842851 0.878139 0.425124
700 12 0.91943 0.922519 0.431068
701 4 0.962927 0.901375 0.428627
702 4 0.932549 0.96955 0.432357
728 4 0.579566 0.54724 0.598125
778 12 0.565377 0.635451 0.588284