ITEM: TIMESTEP
100000
ITEM: NUMBER OF ATOMS
1542
ITEM: BOX BOUNDS pp pp pp
-1.0093999999999999e+01 1.0093999999999999e+01
-9.9900000000000002e+00 9.9900000000000002e+00
-1.8332088665163752e+01 1.8332088665163752e+01
ITEM: ATOMS id type element mass x y z vx vy vz ix iy iz
430 12 C 15.999 -9.19496 -3.6828 -15.0104 -0.00387408 -0.000347289 -0.00186033 -1 0 0
1411 12 C 15.999 -6.85205 -5.80474 -15.4199 0.000101119 -0.00220488 0.00275602 0 -1 1
1412 4 C 1.008 -7.2929 -6.01942 -14.5978 0.0122671 -0.00577047 0.00835008 0 -1 1
524 4 C 1.008 -2.64212 -6.67409 -15.058 7.47574e-06 -0.0113534 -0.0077478 1 -1 0
1413 4 C 1.008 -7.51232 -5.96269 -16.0947 -0.0031791 -0.0198467 0.0100701 0 -1 1
525 4 C 1.008 -3.98579 -5.98402 -15.1592 -0.00350735 -0.0173058 -0.00158974 1 -1 0
523 12 C 15.999 -3.53535 -6.70248 -14.7151 0.00566773 -0.00596487 0.00743681 1 -1 0
1269 4 C 1.008 -2.61077 -1.42799 -15.1986 0.0033956 0.00815808 -0.0087778 0 0 1
1267 12 C 15.999 -2.2634 -0.95563 -14.442 0.00150951 -0.00380878 -0.00044751 0 0 1
432 4 C 1.008 -9.04986 -4.35712 -15.674 -0.0114253 -0.00551701 0.00174943 -1 0 0
1268 4 C 1.008 -1.63908 -0.33265 -14.8139 0.0170856 -0.0115787 0.012756 0 0 1
810 4 C 1.008 -7.2929 -5.22569 18.0849 0.00710737 -0.0135797 0.000163596 1 0 0
1327 12 C 15.999 -5.73904 -8.34049 -15.4046 -0.00601532 0.00685289 0.00532108 1 1 1
444 4 C 1.008 -7.20006 -6.0515 -12.2658 -0.000397952 0.0015014 0.0108264 0 0 0
442 12 C 15.999 -7.90945 -6.16736 -12.8979 0.00447829 0.00415012 0.00487255 0 0 0
443 4 C 1.008 -8.58529 -5.551 -12.6158 -0.00683599 -0.013142 0.0154247 0 0 0
431 4 C 1.008 10.0867 -3.4055 -15.1441 0.00113131 0.0134125 -0.00732359 -2 0 0
809 4 C 1.008 -5.96632 -4.91066 17.427 0.00576807 -0.00384086 0.00209969 1 0 0
1365 4 C 1.008 -5.14769 -2.00809 -17.5286 -0.00398074 0.00807669 0.0175486 1 0 1
1363 12 C 15.999 -5.75122 -2.62857 -17.12 -0.00362717 -0.00333521 0.000743802 1 0 1
214 12 C 15.999 9.05537 -3.38695 -12.498 0.000931307 0.000442902 -0.00223012 -1 0 0
1302 4 C 1.008 -6.99396 -1.35866 -15.9438 0.00443192 -0.0130428 -0.0023512 0 0 0
1300 12 C 15.999 -7.70455 -1.29026 -15.3061 0.0025135 -0.000137394 -0.00589143 0 0 0
843 4 C 1.008 -3.66617 -3.72613 -13.7247 -0.00747253 -0.00160107 0.020108 0 1 1
842 4 C 1.008 -2.54428 -2.71125 -13.6676 0.00171509 -0.00877011 -0.0334579 0 1 1
808 12 C 15.999 -6.44295 -5.6112 17.8723 0.00608905 -0.0109528 -0.00869077 1 0 0
215 4 C 1.008 9.26068 -4.25199 -12.1433 0.00790986 0.0077611 0.011596 -1 0 0
1328 4 C 1.008 -5.71451 -8.71812 -16.2838 0.00158484 -0.0105864 0.0130155 1 1 1
1329 4 C 1.008 -5.77023 -7.39496 -15.5503 -0.011955 0.00371731 -0.0137956 1 1 1
906 4 C 1.008 -5.95691 -4.63489 -14.5018 -0.0136604 0.0123353 -0.00466066 1 0 1
844 12 C 15.999 0.652359 -3.31048 -12.6857 -0.00267578 0.00868836 -0.00352803 0 0 1
846 4 C 1.008 -0.0854549 -2.73916 -12.4725 0.00255984 0.0127966 0.00356631 0 0 1
790 12 C 15.999 -4.10818 -5.09992 -16.9924 -0.00151887 -0.000678386 0.0016182 1 1 1
792 4 C 1.008 -4.77274 -5.55632 -17.5084 -0.00445389 -0.00455817 0.00882328 1 1 1
791 4 C 1.008 -3.29504 -5.56894 -17.1796 0.00284886 0.0168356 -0.0232008 1 1 1
1301 4 C 1.008 -8.09302 -2.16484 -15.285 0.00431549 -0.000467278 0.0127969 0 0 0
904 12 C 15.999 -5.39039 -3.92758 -14.1935 -9.231e-05 0.00126195 -0.00411238 1 0 1
905 4 C 1.008 -5.48519 -3.23974 -14.8524 0.0414985 -0.0107867 -0.0226501 1 0 1
998 4 C 1.008 -6.11388 -9.58733 17.5498 0.000500543 -0.00609089 -0.00423515 1 1 -1
650 4 C 1.008 -8.69901 -3.47752 -13.051 -0.000277591 -0.00722371 0.0134159 1 0 0
649 12 C 15.999 -7.88595 -3.14405 -12.6716 0.00277975 -0.00516738 0.00509664 1 0 0
226 12 C 15.999 -3.51895 -9.21642 -13.5743 0.00469258 0.000430762 0.00520524 -1 0 0
228 4 C 1.008 -4.22972 -8.80321 -14.0645 -0.00300649 -0.0200704 -0.000903522 -1 0 0
1056 4 C 1.008 -0.730333 -5.33194 -16.216 0.00320019 -0.000190219 0.00430307 0 1 1
1054 12 C 15.999 -1.4182 -5.87793 -16.5968 -0.000357496 0.00462659 0.00381355 0 1 1
997 12 C 15.999 -5.82133 -9.96058 -18.2829 -0.0052713 0.000175733 0.000598148 1 1 0
799 12 C 15.999 -2.88283 -2.44544 -16.5667 0.00606722 -0.00248776 -6.69873e-05 1 0 0
800 4 C 1.008 -2.3728 -2.36302 -17.3725 -0.0168255 -0.00560964 -0.0148897 1 0 0
801 4 C 1.008 -3.00805 -3.38809 -16.4573 0.0158714 -0.00247274 0.0113603 1 0 0
1055 4 C 1.008 -0.94714 -6.53301 -17.1117 -0.00492311 0.00705428 -0.0034551 0 1 1
845 4 C 1.008 1.00396 -3.57565 -11.8359 -0.00988059 -0.0112897 -0.00676962 0 0 1
841 12 C 15.999 -2.73199 -3.64039 -13.5345 -0.00301972 -0.00312741 -0.0010134 0 1 1
486 4 C 1.008 -3.45171 -6.45738 -12.9025 -0.00232072 0.0107675 -0.00345625 1 1 0
566 4 C 1.008 -8.17063 -1.45285 -11.7271 0.00366746 -0.00437038 0.00885415 0 1 0
554 4 C 1.008 -1.34378 -4.94898 -13.2492 0.0112558 0.000113009 -0.00526211 0 0 0
553 12 C 15.999 -0.925762 -5.80846 -13.302 0.00524821 -0.00310069 -0.000576957 0 0 0
1167 4 C 1.008 -8.80816 -8.57009 -15.6444 0.00368193 -0.00226682 0.00867797 1 1 1
619 12 C 15.999 -9.70148 -9.47693 -12.6176 -0.00136097 0.00394558 0.00814299 0 0 0
1166 4 C 1.008 -10.0442 -9.37512 -15.9851 -0.00664249 0.0167723 0.00112188 1 1 1
1165 12 C 15.999 -9.21173 -9.07528 -16.3502 0.000875828 0.00270884 0.00671734 1 1 1
555 4 C 1.008 -1.07947 -6.20326 -12.4437 -0.0207248 -0.0081153 -0.0075488 0 0 0
539 4 C 1.008 -4.06194 -9.38272 -18.1268 0.000835469 -0.0216772 0.0191192 1 -1 0
227 4 C 1.008 -2.75686 -8.66262 -13.7438 -0.00291736 0.00548234 -0.0125224 -1 0 0
484 12 C 15.999 -3.50579 -6.35655 -11.9522 -0.00213401 0.00672802 -0.0030185 1 1 0
485 4 C 1.008 -2.95425 -7.05748 -11.6047 -0.0145906 -0.00444551 -0.0057824 1 1 0
837 4 C 1.008 -4.96002 -5.52972 -11.5278 0.0150915 0.0253326 0.0103897 0 0 1
651 4 C 1.008 -7.20328 -3.71058 -13.0311 -0.00144481 -0.0147897 0.0122148 1 0 0
207 4 C 1.008 -5.23721 -7.17801 -10.4334 0.00439656 0.00909458 0.0154417 1 1 0
205 12 C 15.999 -5.41729 -7.82885 -9.75497 -0.000790944 -0.00276677 0.00270577 1 1 0
654 4 C 1.008 0.475099 1.31535 -10.8823 -0.00708269 0.0141527 0.00398 1 0 0
521 4 C 1.008 -0.40451 -8.85479 -17.8623 -0.00166476 0.00436008 -0.00116789 1 1 0
1421 4 C 1.008 0.959595 -4.97418 18.1635 -0.000985064 0.00318479 0.00527343 0 0 0
216 4 C 1.008 8.3682 -3.04902 -11.9237 0.0190318 0.0162936 0.0101091 -1 0 0
372 4 C 1.008 3.4443 -6.17247 -14.955 -0.000154378 0.0172525 0.002608 0 0 0
371 4 C 1.008 4.57499 -6.86068 -15.6897 -0.00124901 -0.00380465 0.0206654 0 0 0
121 12 C 15.999 -0.247685 0.766831 -15.2773 0.00134011 0.00836101 0.00115321 1 0 0
123 4 C 1.008 -0.362125 1.66426 -14.9646 0.0251369 0.0124017 -0.00175133 1 0 0
370 12 C 15.999 4.23218 -5.99473 -15.4687 -7.40569e-05 0.00251447 -0.00235827 0 0 0
428 4 C 1.008 1.29149 -0.244875 -14.0441 -0.00287112 0.00460065 -0.00521813 0 0 0
429 4 C 1.008 1.24689 -1.72445 -13.7267 -0.00417568 0.000692134 -0.0235458 0 0 0
427 12 C 15.999 1.85019 -1.01682 -13.9537 -0.00136006 0.00654609 0.00204238 0 0 0
867 4 C 1.008 0.414221 -3.79272 -14.5226 -0.00146846 -0.0167338 0.00622556 0 1 1
1323 4 C 1.008 4.81645 1.00936 -11.9911 0.00594858 -0.00138448 0.00581412 0 1 1
63 4 C 1.008 1.2912 -8.29368 -11.5999 0.0107238 -0.00863142 0.0187382 0 1 0
61 12 C 15.999 1.74577 -7.45562 -11.5147 0.003738 -0.00324943 0.00296873 0 1 0
1197 4 C 1.008 7.09727 -1.54646 -10.0878 -0.010174 0.00176158 0.00305622 0 0 0
1195 12 C 15.999 7.36997 -2.39113 -10.4461 -0.00459095 0.00419745 0.00157447 0 0 0
1196 4 C 1.008 6.7107 -3.00953 -10.1312 -0.00118993 -0.000499441 -0.000539584 0 0 0
657 4 C 1.008 1.5794 -6.97722 -13.2991 0.0073297 0.00906215 0.00967484 0 0 0
126 4 C 1.008 5.90508 -5.11875 -14.926 0.00841478 6.47585e-05 -0.0143405 0 0 0
655 12 C 15.999 1.74315 -6.38493 -14.033 0.00156014 -0.000271489 0.000876047 0 0 0
124 12 C 15.999 6.85583 -5.05977 -14.832 0.00733318 -0.00144125 -0.00246007 0 0 0
125 4 C 1.008 6.99629 -4.9204 -13.8955 -0.00485741 0.0126784 -0.0027315 0 0 0
656 4 C 1.008 1.00284 -5.77827 -14.0216 0.0146085 0.0154236 0.0143911 0 0 0
1489 12 C 15.999 -9.05874 -5.77707 -17.1223 -0.00641647 0.00838178 -0.0038708 0 0 1
1491 4 C 1.008 -9.14557 -5.44302 -18.0151 0.00167536 -0.00593275 -0.0100321 0 0 1
1490 4 C 1.008 -9.92849 -6.11334 -16.9062 -0.0101836 0.0181571 -0.00382457 0 0 1
1264 12 C 15.999 8.03604 -1.04881 -13.653 0.000119688 0.00391019 -0.000994646 -1 0 1
1265 4 C 1.008 8.60697 -0.370601 -13.292 0.00375323 -0.0057987 0.0115375 -1 0 1
1266 4 C 1.008 8.40757 -1.87076 -13.3327 -0.0101665 -0.00342608 -0.00789145 -1 0 1
409 12 C 15.999 5.51957 -2.09604 -14.0316 0.00414181 0.00133715 -4.46114e-05 -1 1 0
411 4 C 1.008 5.03045 -2.54593 -13.3427 0.0127157 -0.00250988 0.00353383 -1 1 0
410 4 C 1.008 6.14785 -1.54814 -13.5612 0.00707282 0.00200095 -0.00473728 -1 1 0
1343 4 C 1.008 4.22871 -0.734675 -17.1794 0.0111166 -0.00586931 0.00507736 1 0 1
1500 4 C 1.008 2.89374 -1.82714 -15.4061 0.00422092 0.0150137 -0.0120701 -1 0 1
865 12 C 15.999 0.575542 -4.19824 -15.3745 -0.000291111 -0.00256101 -0.000294554 0 1 1
1342 12 C 15.999 4.72219 0.0228571 -17.4939 -0.00813538 0.00533552 0.00193454 1 0 1
1499 4 C 1.008 4.37761 -2.12698 -15.4162 -0.00277536 -0.020358 0.0105881 -1 0 1
1498 12 C 15.999 3.58783 -2.19558 -15.9527 0.00429312 0.000852619 -0.00246773 -1 0 1
51 4 C 1.008 6.78431 -3.0893 -15.8299 -0.0133264 0.00244187 -0.0141367 0 0 0
255 4 C 1.008 8.25215 -7.44312 -16.0327 0.00845123 -0.00345154 -0.000592795 0 1 0
253 12 C 15.999 8.7092 -6.61254 -16.1649 0.00108019 0.000335132 -0.00229292 0 1 0
254 4 C 1.008 8.0758 -5.94535 -15.9005 -0.00909939 -0.00421511 -0.0151226 0 1 0
682 12 C 15.999 3.49214 -9.06051 -15.1502 0.00390158 -0.00104926 -0.00275708 0 1 0
684 4 C 1.008 3.88343 -8.94168 -14.2848 0.0127667 -0.0146147 -0.00486947 0 1 0
117 4 C 1.008 6.59473 1.67936 -14.4412 -0.0129213 0.0116099 0.0183938 -1 -1 0
55 12 C 15.999 3.55778 1.14561 -10.8054 -6.91245e-06 0.00178943 -0.00415124 0 0 0
57 4 C 1.008 2.66812 1.33732 -11.102 -0.00630604 0.00977869 0.0198323 0 0 0
866 4 C 1.008 1.4667 -4.54195 -15.3118 -0.0108558 -0.0289508 0.00530013 0 1 1
1032 4 C 1.008 8.14697 -3.71798 -17.4985 -0.0124526 -0.0134686 -0.00622152 0 1 1
1031 4 C 1.008 7.77622 -3.45839 17.721 0.000831654 -0.0106914 -0.00913513 0 1 0
1389 4 C 1.008 2.60107 -1.75666 -17.6165 0.000414495 0.00677533 0.000102905 -1 0 1
1030 12 C 15.999 8.51723 -3.68324 18.2836 -0.000808191 0.0052372 -0.000624002 0 1 0
620 4 C 1.008 -9.90732 -8.56537 -12.8248 0.0086684 0.00010394 -0.0188822 0 0 0
66 4 C 1.008 5.61623 -8.69226 -14.6354 0.000647418 0.000838091 -0.00538159 -1 0 0
64 12 C 15.999 6.39654 -8.28787 -15.0146 0.000704312 0.00367844 -0.00225122 -1 0 0
65 4 C 1.008 6.29718 -8.41313 -15.9583 0.00291801 0.00698524 -0.00292731 -1 0 0
355 12 C 15.999 4.61959 -8.20122 -12.9651 -0.00274995 0.000541256 0.0042091 0 0 0
356 4 C 1.008 5.23696 -8.06119 -12.2471 -0.00167304 -0.00764325 0.00488447 0 0 0
676 12 C 15.999 6.50729 -5.25077 -12.0337 -0.00171207 -0.000802208 0.00242016 0 0 0
677 4 C 1.008 6.85299 -6.10568 -11.7771 -0.0239873 -0.00772953 0.0093699 0 0 0
357 4 C 1.008 3.76001 -8.03427 -12.5784 -0.00038016 0.0191135 0.00137807 0 0 0
1044 4 C 1.008 -0.481178 -8.28741 -15.5799 0.0208819 0.00642231 -0.00312627 0 -1 1
49 12 C 15.999 7.39256 -2.43755 -16.1785 -0.00316446 0.00250449 0.00367054 0 0 0
1152 4 C 1.008 7.48693 -1.53658 -17.7816 -0.000249207 -0.00105929 -0.00203254 -1 1 0
1042 12 C 15.999 -0.51658 -8.31728 -14.6239 0.000779808 0.00491933 -0.00393735 0 -1 1
731 4 C 1.008 9.8909 -7.91639 18.1288 -0.00916603 -0.0129997 -0.00891309 1 0 0
515 4 C 1.008 4.03829 8.95643 18.015 0.00602543 -0.00179001 -0.00538388 0 0 -1
1121 4 C 1.008 8.20037 -7.21242 -13.8995 -0.0107838 -0.00435299 0.000805703 0 0 0
730 12 C 15.999 -9.58353 -8.40643 17.7203 0.00390797 -0.00224808 0.00105829 2 0 0
50 4 C 1.008 7.46514 -1.7819 -15.4849 -0.0167684 -0.00195204 0.00931664 0 0 0
1150 12 C 15.999 7.28113 -0.913557 18.1856 -0.000691216 -0.00263751 -0.00331329 -1 1 -1
1151 4 C 1.008 6.56162 -0.389222 -18.1269 0.00629283 0.00479973 -0.000104722 -1 1 0
1387 12 C 15.999 1.78901 -1.78649 -18.1223 0.00197601 -6.97365e-05 -0.00200122 -1 0 1
1388 4 C 1.008 1.50818 -2.70017 -18.0717 0.00585814 -0.000988079 0.00310939 -1 0 1
1043 4 C 1.008 -0.544581 -7.39877 -14.3559 0.00635057 0.00470627 -0.00263803 0 -1 1
1529 4 C 1.008 4.45754 -4.96596 -17.3208 0.00285288 -0.00364206 -0.00207675 0 1 1
1528 12 C 15.999 4.90713 -4.18499 -17.6436 0.00564539 -0.00383546 0.00133515 0 1 1
1530 4 C 1.008 4.5501 -3.46844 -17.1189 0.00701425 -0.00462814 0.00334793 0 1 1
1281 4 C 1.008 -6.99165 1.18201 -15.1756 -0.0178689 -0.00296567 0.00490821 0 0 1
995 4 C 1.008 -4.99764 0.0159505 -13.1541 -0.0054995 0.0285223 0.00193309 0 1 0
994 12 C 15.999 -4.19267 -0.0150616 -12.6371 -0.00175044 0.00776454 -0.00518877 0 1 0
996 4 C 1.008 -3.50983 -0.239038 -13.2694 -0.00663009 0.0312023 -0.0187852 0 1 0
1279 12 C 15.999 -6.64679 1.66746 -14.4262 0.00427039 0.00403862 -0.00983607 0 0 1
267 4 C 1.008 -8.91584 -0.311714 -14.269 -0.000477492 -0.00369751 0.00323267 1 0 0
81 4 C 1.008 -7.94312 -9.80044 -13.0868 -0.00398049 0.00670225 -0.00737488 0 0 0
58 12 C 15.999 -2.5658 9.34631 -9.97734 -0.000559657 0.000424077 0.00488866 0 -1 0
79 12 C 15.999 -7.07108 9.92596 -13.3893 -0.00137489 0.00150758 0.00446643 0 -1 0
80 4 C 1.008 -6.66752 -9.23377 -13.673 0.00350025 -0.0024118 6.63573e-05 0 0 0
60 4 C 1.008 -3.26009 9.45815 -10.6267 -0.014323 0.00291807 0.0200507 0 -1 0
148 12 C 15.999 -0.629298 3.13132 -13.4706 -0.0055506 0.00132848 -0.000442654 0 1 0
150 4 C 1.008 -0.920331 3.5155 -14.2976 0.0120122 0.00803996 -0.00350987 0 1 0
1158 4 C 1.008 -7.47878 1.4346 -12.7574 0.0212177 -0.00161942 0.00118553 1 0 1
675 4 C 1.008 -5.21661 8.42247 -13.1046 -0.0113219 0.0186085 0.00674617 0 -1 0
673 12 C 15.999 -4.53325 8.57161 -12.4511 0.000956832 -0.00306529 -0.00115141 0 -1 0
674 4 C 1.008 -4.04582 9.32623 -12.7816 0.0176794 -0.0150834 -0.00399196 0 -1 0
67 12 C 15.999 -4.51088 4.6239 -11.7408 -0.00416188 0.0036689 0.00105703 0 0 0
68 4 C 1.008 -3.80068 5.26557 -11.7304 0.00424403 -0.00554142 -0.00499996 0 0 0
158 4 C 1.008 8.32525 8.85323 -15.3224 0.0174752 0.000384808 0.0116664 0 -1 0
127 12 C 15.999 -6.69921 6.05006 -12.7467 0.0044907 0.000533991 0.00233453 0 0 0
128 4 C 1.008 -5.94307 5.50092 -12.5395 0.000326112 -0.00250761 0.0094685 0 0 0
69 4 C 1.008 -4.1155 3.82276 -11.3971 -0.00741979 -0.00587734 -0.0175253 0 0 0
1283 4 C 1.008 -6.17012 9.30035 -11.1284 0.00907586 0.0119595 -0.00205989 -1 0 0
498 4 C 1.008 -6.74701 5.10685 -16.258 -0.0272362 -0.00951402 -0.0159989 1 -1 0
538 12 C 15.999 -3.11802 -9.22872 -18.166 -0.00365516 0.000197516 -0.00282957 1 -1 0
129 4 C 1.008 -6.42828 6.55124 -13.5159 0.00864635 -0.0107964 -0.00358563 0 0 0
1377 4 C 1.008 -6.2636 8.74806 -14.6057 0.00360766 0.00814998 -0.0158016 0 1 1
1375 12 C 15.999 -5.91824 7.97674 -15.0552 0.00178049 -0.00260434 0.00124546 0 1 1
1376 4 C 1.008 -6.47446 7.88033 -15.8282 0.01026 -0.0102184 -0.00390833 0 1 1
978 4 C 1.008 -9.45804 1.5839 -17.121 0.0252024 -0.0136182 0.000620467 0 1 1
976 12 C 15.999 -9.30046 2.09434 -16.3268 -0.00201728 -0.00511199 0.000574685 0 1 1
977 4 C 1.008 -8.65559 2.75172 -16.588 -0.0126882 0.00864463 0.00888243 0 1 1
1288 12 C 15.999 -3.75294 6.11656 -16.0188 0.00174525 -0.000811064 0.000201121 0 0 1
1290 4 C 1.008 -3.11846 6.69504 -16.4419 -0.010341 0.00922353 -0.00418482 0 0 1
794 4 C 1.008 -8.84727 7.72162 -17.4062 0.00777953 0.0104485 -0.0125232 0 0 0
793 12 C 15.999 -8.32128 7.9234 -16.6324 -1.3498e-05 -0.01141 -0.00151516 0 0 0
795 4 C 1.008 -8.77429 8.65849 -16.2193 0.00239914 -0.0153843 0.00821561 0 0 0
1289 4 C 1.008 -4.3526 6.70892 -15.5652 0.00392247 -0.0108606 0.0161912 0 0 1
245 4 C 1.008 -8.16975 5.26098 -13.7335 0.00692374 -0.00157728 -0.004608 0 0 0
877 12 C 15.999 8.77473 8.1878 -17.6829 -0.000400299 0.00394285 -0.00394843 -1 0 1
1280 4 C 1.008 -6.93375 2.56898 -14.5716 -0.00587178 0.00139152 -0.00628315 0 0 1
926 4 C 1.008 -7.85712 6.72419 -11.5358 -0.00793171 -0.0271468 -0.0257112 -1 0 1
925 12 C 15.999 -8.61683 6.60914 -10.9649 0.00508458 -0.00287625 -0.00349308 -1 0 1
244 12 C 15.999 -8.76178 5.40079 -14.4725 -0.000872076 -0.00143014 0.0016651 0 0 0
1405 12 C 15.999 -3.75303 2.47711 -15.8075 -0.00380677 -0.00333646 -0.00226779 1 -1 1
1407 4 C 1.008 -4.36291 2.71472 -15.109 -0.0125461 0.00729798 -0.013489 1 -1 1
779 4 C 1.008 -1.58821 5.19208 -15.5084 -0.00339289 -0.00116906 0.0068313 1 0 1
497 4 C 1.008 -5.53712 4.20756 -16.119 -0.0094961 0.0158764 -0.00636662 1 -1 0
1406 4 C 1.008 -2.97453 3.00729 -15.6369 -0.00375857 -0.00502891 0.00276046 1 -1 1
149 4 C 1.008 -0.528129 3.87874 -12.8813 0.0260366 0.00112203 -0.00562645 0 1 0
780 4 C 1.008 -1.34907 4.3154 -16.7192 -0.0146205 0.0222877 -0.0123778 1 0 1
778 12 C 15.999 -1.51367 4.2764 -15.7771 -0.00117723 0.00417104 -0.0107584 1 0 1
1445 4 C 1.008 -3.37572 7.3596 -11.9392 0.0120596 0.0155231 -0.0255057 -1 0 1
246 4 C 1.008 -8.19318 5.38236 -15.2423 -0.00686885 0.0140165 -0.00314391 0 0 0
1523 4 C 1.008 -3.56759 1.48502 -11.5352 -0.00147622 -0.00121806 0.000135733 0 1 1
496 12 C 15.999 -6.42767 4.3343 -15.7917 -0.0109381 0.00356598 -0.00552812 1 -1 0
638 4 C 1.008 -1.93275 9.26896 -13.655 -0.00841877 -0.00195389 0.0182011 -1 -1 0
864 4 C 1.008 -2.48653 8.91965 -17.4637 -0.0161724 -0.00192768 0.00793312 1 -1 1
653 4 C 1.008 0.277552 2.00691 -12.2144 0.00102259 0.0140241 0.00271987 1 0 0
559 12 C 15.999 -0.585356 4.2131 18.2999 0.00256505 -0.000867309 0.00149821 1 -1 -1
637 12 C 15.999 -1.00771 9.02506 -13.6229 -0.0068302 0.00104665 -0.0045709 -1 -1 0
206 4 C 1.008 -5.70975 -7.31573 -9.00171 -0.0128154 -0.016406 0.00730091 1 1 0
1284 4 C 1.008 -6.07398 -9.53038 -10.1476 0.000702217 -0.00101792 0.0139645 -1 1 0
927 4 C 1.008 -9.04946 5.82244 -11.2969 -0.0225178 0.003534 0.0172774 -1 0 1
1156 12 C 15.999 -7.64477 1.62491 -11.8342 0.00420515 -0.00311716 -0.00157057 1 0 1
540 4 C 1.008 -3.0304 -8.38884 18.0475 -0.0327018 -0.00820745 -0.0240852 1 -1 -1
831 4 C 1.008 -3.82118 5.04859 -17.3375 -0.0113811 -0.000664512 0.00794466 1 0 1
862 12 C 15.999 -2.41854 7.9995 -17.2088 0.00220886 -0.00113992 0.00585158 1 -1 1
863 4 C 1.008 -1.8498 7.60823 -17.8719 -0.0115184 0.00594863 -0.0100831 1 -1 1
122 4 C 1.008 0.159879 0.86271 -16.138 0.0164848 -0.00572955 0.00677289 1 0 0
621 4 C 1.008 9.74234 -9.97413 -12.957 0.00536808 -0.00039319 -0.000257695 -1 0 0
1322 4 C 1.008 6.27376 1.35657 -12.2093 0.00240763 0.012068 0.00354092 0 1 1
116 4 C 1.008 6.16447 3.07926 -14.0577 0.0173312 0.0280676 -0.00777179 -1 -1 0
266 4 C 1.008 -9.7181 0.707206 -15.05 -0.000475469 -0.00839925 -0.00290784 1 0 0
1344 4 C 1.008 4.58853 0.691842 -16.8224 0.00294732 -0.00652969 0.0159544 1 0 1
115 12 C 15.999 6.83124 2.60047 -14.5501 0.000990098 0.00498085 -0.00742864 -1 -1 0
265 12 C 15.999 -9.65111 0.295825 -14.1884 -0.00106048 -0.00388008 -0.00070342 1 0 0
184 12 C 15.999 0.684943 -9.92798 -11.2777 0.00150499 0.0034578 -0.00455106 0 1 0
157 12 C 15.999 8.60831 9.7676 -15.3282 -0.00703168 0.00789072 -0.000182336 0 -1 0
159 4 C 1.008 8.03106 -9.77851 -14.6999 0.00160632 -0.00558177 0.0170495 0 0 0
1250 4 C 1.008 -9.99212 7.33534 -12.3996 0.00756114 -0.0284222 0.00226243 -1 0 1
907 12 C 15.999 -0.21833 5.40949 -12.0154 -0.00152204 0.000775587 0.000100351 1 0 1
908 4 C 1.008 0.0233844 5.25201 -11.1027 -0.00825801 0.000810227 0.0018936 1 0 1
1321 12 C 15.999 5.47248 1.1243 -12.6786 0.00306717 0.00769602 0.00457743 0 1 1
683 4 C 1.008 3.24432 -9.9847 -15.1767 -0.0074746 0.00220275 -0.0100836 0 1 0
350 4 C 1.008 3.47981 0.16622 -14.6289 -0.0100149 -0.0015567 -0.0272133 -1 0 0
186 4 C 1.008 1.3553 9.53601 -11.7256 0.0111372 0.00702521 0.00573494 0 0 0
1249 12 C 15.999 9.72074 7.07546 -13.1889 -0.00316157 -0.00158127 -0.000100382 -2 0 1
1251 4 C 1.008 -9.78218 6.88647 -13.8301 -0.0111978 -0.0163041 -0.00429997 -1 0 1
185 4 C 1.008 0.186647 9.41042 -10.7714 0.00732134 0.00296496 0.000539345 0 0 0
462 4 C 1.008 7.57843 8.48449 -13.1584 -0.0252645 -0.00752444 0.00986999 0 -1 0
909 4 C 1.008 -1.12912 5.7012 -11.9756 -0.00642648 -0.0133604 -0.00784203 1 0 1
1472 4 C 1.008 9.77136 1.92269 -13.8968 -0.0011208 0.00609969 -0.0170831 -1 0 1
1471 12 C 15.999 9.33697 2.69779 -13.5408 0.0033875 1.33832e-05 0.00167311 -1 0 1
1473 4 C 1.008 8.53267 2.77885 -14.0534 0.0048091 0.0182409 0.00232352 -1 0 1
33 4 C 1.008 2.60841 8.22471 -13.5781 -0.00992319 0.0060418 -0.00234442 -1 0 0
31 12 C 15.999 3.04012 8.36329 -14.4211 0.00412452 0.00263213 0.00426994 -1 0 0
32 4 C 1.008 3.30363 7.48722 -14.7027 0.00341804 0.000786789 0.00933917 -1 0 0
460 12 C 15.999 7.4146 9.40389 -12.9485 0.00620656 -0.000188478 0.00233041 0 -1 0
1260 4 C 1.008 1.9454 8.18809 -16.0657 -0.000702264 -0.00715773 -0.000362358 1 0 1
1259 4 C 1.008 0.872629 7.14578 -15.8319 -0.00244349 -0.00607216 -0.00352844 1 0 1
1258 12 C 15.999 1.22861 7.72833 -16.5028 -0.000439479 -0.00579608 -0.00222282 1 0 1
1458 4 C 1.008 -0.622641 7.29587 -14.2534 -0.00893116 -0.00454605 0.00424451 0 0 1
1456 12 C 15.999 -0.334081 6.41271 -14.4836 -0.00387572 -0.000897109 -0.00341795 0 0 1
692 4 C 1.008 8.1448 6.20414 -13.8523 0.00164678 -0.00465639 -0.00624805 -1 0 0
564 4 C 1.008 2.3785 5.50168 -12.1111 -0.0105502 -0.00726668 -0.00265289 -1 0 0
1507 12 C 15.999 6.51553 4.27153 -16.7517 -0.00628442 -0.000719263 0.00102024 0 -1 1
691 12 C 15.999 7.2841 6.27025 -14.2659 -0.00171694 0.0068364 0.00256295 -1 0 0
1509 4 C 1.008 7.16601 3.72022 -16.3167 0.00533579 -0.000675271 -0.0162873 0 -1 1
1508 4 C 1.008 5.67956 4.002 -16.3712 0.00400223 0.000285772 0.0243831 0 -1 1
563 4 C 1.008 2.34785 4.11667 -12.7216 -0.000190654 -0.0124722 0.00864696 -1 0 0
562 12 C 15.999 2.89231 4.698 -12.1907 -0.00512991 -0.00456353 0.00504222 -1 0 0
1540 13 C 22.99 7.1794 6.39334 -16.7871 0.00285871 -0.00260382 -0.00211268 0 0 0
351 4 C 1.008 4.40953 1.20719 -14.0425 0.00466827 -0.0281461 -0.00336881 -1 0 0
349 12 C 15.999 3.99146 0.941072 -14.8614 0.000866101 -0.00341017 -0.00943067 -1 0 0
441 4 C 1.008 3.31902 6.22894 -17.0505 -0.0106357 -0.0123258 0.00244146 -1 0 0
439 12 C 15.999 3.84387 6.23714 -16.25 -0.00726974 0.000495619 0.000115392 -1 0 0
440 4 C 1.008 3.86193 5.32337 -15.9655 0.0263241 -0.000882976 -0.00649214 -1 0 0
278 4 C 1.008 5.53017 8.99935 -16.6131 -0.0129805 0.00108449 0.0101764 0 0 1
277 12 C 15.999 6.00264 8.29383 -16.1712 -0.00660936 0.00145394 0.0039441 0 0 1
1457 4 C 1.008 -0.105264 6.00913 -13.6463 -0.0165571 -0.0121554 -0.00538472 0 0 1
136 12 C 15.999 9.34584 5.38246 -16.2732 0.000803781 0.00292516 -0.00271238 -1 0 0
137 4 C 1.008 -10.0077 5.23084 -16.717 -0.00538989 -0.0111563 -0.00954324 0 0 0
138 4 C 1.008 9.51345 5.14811 -15.3604 0.00332132 -0.00338762 -0.00479582 -1 0 0
279 4 C 1.008 6.01218 8.55187 -15.2495 -0.00986731 -0.00715541 0.00638378 0 0 1
639 4 C 1.008 -0.539062 9.83309 -13.8319 -0.0134907 0.0119812 0.0226714 -1 -1 0
487 12 C 15.999 5.52617 5.27438 -12.2359 0.00892524 -0.00599658 0.0016353 0 0 0
489 4 C 1.008 4.61088 5.07852 -12.4362 0.00560408 -0.000175614 0.0111608 0 0 0
488 4 C 1.008 5.49014 5.79528 -11.4337 0.0199871 0.0023943 -0.0033194 0 0 0
598 12 C 15.999 3.74318 3.40971 -15.9977 0.00458852 0.00336255 -0.00252513 -1 0 0
600 4 C 1.008 3.73328 2.54992 -15.5771 -0.00396306 0.00927924 0.00937909 -1 0 0
693 4 C 1.008 6.67883 5.90612 -13.6199 0.00259098 -0.00409448 0.000434081 -1 0 0
951 4 C 1.008 2.13586 7.53514 -10.8876 0.0126324 -0.00321035 0.00431781 0 -1 0
732 4 C 1.008 -9.1971 -8.90988 -18.2273 -0.000945844 0.00067095 0.0057171 2 0 1
599 4 C 1.008 2.98669 3.39876 -16.5841 0.013765 -0.00314202 -0.0142258 -1 0 0
652 12 C 15.999 0.956788 1.71588 -11.606 -0.00230051 0.00492523 0.00206945 1 0 0
261 4 C 1.008 6.30464 3.39459 -10.3396 0.0160584 0.0180233 0.0226564 -1 0 0
949 12 C 15.999 2.38316 7.97648 -11.7002 -0.00228189 -0.00575835 -0.00160917 0 -1 0
259 12 C 15.999 5.68648 3.34449 -9.61046 -0.00274971 -0.00172715 0.00534314 -1 0 0
514 12 C 15.999 4.61712 9.58919 -18.224 -0.00185542 0.00184502 -9.45497e-05 0 0 0
668 4 C 1.008 -9.12891 -0.280919 18.1541 0.00332833 0.00345823 0.00761808 1 1 -1
516 4 C 1.008 4.384 -9.55001 18.0465 0.0051417 -0.00145465 -0.0112918 0 1 -1
686 4 C 1.008 -9.69347 -6.13533 -10.6256 -0.017879 -0.0111094 0.0156452 0 2 0
567 4 C 1.008 -9.63479 -1.08337 -11.6193 0.00356198 0.000389585 -0.00888859 0 1 0
835 12 C 15.999 -5.84847 -5.47399 -11.176 0.00790996 -9.7362e-05 -0.00371984 0 0 1
836 4 C 1.008 -5.76115 -4.93863 -10.3873 -0.0159399 -0.0178654 0.0109961 0 0 1
961 12 C 15.999 -5.74324 -1.78766 -10.8696 0.00108874 -0.00383876 -0.00138289 1 0 1
1082 4 C 1.008 -1.86286 -4.04603 -10.4423 0.0114942 0.0160049 0.0102445 0 1 1
1081 12 C 15.999 -2.24706 -3.26424 -10.8391 -0.00434543 -3.1216e-05 -0.00600012 0 1 1
1083 4 C 1.008 -2.50064 -3.54177 -11.7194 0.0200518 -0.0178742 -0.00740705 0 1 1
1246 12 C 15.999 -9.88922 -9.52859 -7.38393 -0.00363783 -0.006881 -0.000760172 1 -1 1
633 4 C 1.008 -3.04187 -8.94709 -7.76225 0.0125045 -0.00268059 -0.0073432 -1 0 0
1361 4 C 1.008 -3.75575 -2.05329 -9.62488 -0.0128643 -0.0111195 0.00272104 1 1 0
1360 12 C 15.999 -3.79535 -1.68936 -8.74045 -1.10895e-05 0.000295524 -0.00139716 1 1 0
910 12 C 15.999 -4.69155 -2.13594 -6.17683 -0.00374507 -0.00693075 0.00182138 0 -1 0
911 4 C 1.008 -4.87191 -1.65313 -6.98342 -0.0203845 0.00419601 0.0121548 0 -1 0
912 4 C 1.008 -4.30797 -1.48557 -5.58851 0.00062464 -0.0130594 0.00573603 0 -1 0
1362 4 C 1.008 -3.18368 -2.22339 -8.23359 0.0121603 0.0109487 -0.00488147 1 1 0
797 4 C 1.008 -1.74141 -6.06476 -6.5088 0.00910828 -0.00519683 -0.00653145 1 0 1
42 4 C 1.008 -7.6411 -9.20108 -6.66685 0.0113277 -0.0218776 -0.0140929 0 1 0
796 12 C 15.999 -2.02886 -5.80584 -7.38434 -0.0027787 0.00409142 0.00010522 1 0 1
798 4 C 1.008 -2.62807 -6.50123 -7.65564 0.0161059 -0.00783155 -0.0109236 1 0 1
161 4 C 1.008 -8.65011 -7.70509 -9.61938 -0.00241366 0.00300115 0.00797337 0 0 0
162 4 C 1.008 -8.16983 -6.663 -8.63182 -0.00237549 0.012755 -0.00235598 0 0 0
211 12 C 15.999 9.8304 -3.73204 -4.68013 0.00445711 -0.00291683 0.0162405 -1 -1 0
212 4 C 1.008 -9.46773 -3.96223 -4.94732 -0.00601214 0.00082553 -0.0219652 0 -1 0
160 12 C 15.999 -8.84537 -6.82797 -9.28959 -0.00462015 0.00476506 0.00196575 0 0 0
241 12 C 15.999 -6.66052 -6.27247 -7.65319 0.00448091 -0.00299742 0.000990847 0 0 0
384 4 C 1.008 -6.72468 -0.737057 -9.30833 -0.00127893 -0.0145988 0.0126554 0 1 0
382 12 C 15.999 -7.59485 -0.571053 -8.94572 -0.0024122 0.000879047 0.00285437 0 1 0
383 4 C 1.008 -8.19876 -0.914261 -9.6043 -0.00103517 0.0080499 -0.00214755 0 1 0
243 4 C 1.008 -5.9688 -6.35398 -6.9966 -0.00583081 -0.00738543 0.0112855 0 0 0
459 4 C 1.008 -9.71839 -6.8291 -7.51996 0.00895002 0.0024655 -0.00377744 -1 0 0
457 12 C 15.999 -10.0352 -6.39994 -6.72516 -0.00343307 -0.00274912 -0.00589517 -1 0 0
242 4 C 1.008 -6.57403 -5.37811 -7.98314 0.0163291 -0.00418134 0.000869722 0 0 0
41 4 C 1.008 -7.70844 -9.16847 -5.1548 -0.0300193 -0.00341411 -0.0162891 0 1 0
40 12 C 15.999 -7.17836 -9.49462 -5.88203 0.00012195 0.00406807 0.00225139 0 1 0
458 4 C 1.008 9.20595 -6.33427 -6.84899 -0.000306945 0.00723294 -0.0246919 -2 0 0
258 4 C 1.008 -8.61827 0.460243 -4.06299 -0.00116368 -0.00857575 6.21648e-05 0 0 0
257 4 C 1.008 -8.75403 -0.760422 -4.94811 0.0021581 -0.014056 0.00711314 0 0 0
1247 4 C 1.008 -9.96267 9.50331 -7.49325 0.00983491 -0.0105023 0.0214558 1 -2 1
213 4 C 1.008 9.82411 -2.77496 -4.66587 0.00303849 -0.00303106 0.0232191 -1 -1 0
454 12 C 15.999 -1.31546 -8.90385 -5.01036 -0.00432743 0.000841249 -0.00334716 -1 0 0
1085 4 C 1.008 -2.09319 -2.8029 -6.1057 -0.014017 -0.00992988 0.00299051 0 0 0
753 4 C 1.008 -2.58376 -2.08146 -3.68824 -0.00812908 -0.0128484 -0.0177655 0 0 0
1244 4 C 1.008 -7.33374 -3.466 -9.14478 -0.00685035 -0.0127487 -0.00308596 0 1 0
1245 4 C 1.008 -6.01909 -3.10669 -8.48562 -0.00131892 0.0113639 -0.0273067 0 1 0
1243 12 C 15.999 -6.56831 -3.85443 -8.72115 0.000548946 0.0022593 -0.00271102 0 1 0
1086 4 C 1.008 -1.94764 -3.79102 -7.24339 0.0137725 -0.000249542 -0.00184239 0 0 0
1171 12 C 15.999 -8.93581 -1.59273 -6.63224 0.000490711 0.00630931 -0.0016008 1 2 0
1172 4 C 1.008 -8.40455 -2.38223 -6.52886 -0.00143844 0.00456257 -0.00500934 1 2 0
1304 4 C 1.008 -3.5652 -0.0904745 -8.67649 0.0178457 0.00418323 0.00426397 0 -1 0
751 12 C 15.999 -2.58284 -1.44277 -4.4012 0.00461907 0.00712401 0.000115681 0 0 0
752 4 C 1.008 -2.00901 -0.740952 -4.09395 0.0269666 -0.0178113 0.0154197 0 0 0
1404 4 C 1.008 -1.62651 1.06555 -9.13781 -0.000299966 -0.0054955 -0.000310525 0 1 1
840 4 C 1.008 1.5858 -3.28978 -9.42363 -0.0213787 0.00702644 -0.00380008 0 0 1
1173 4 C 1.008 -8.54503 -1.13638 -7.3774 0.000945231 0.00803642 -0.000304527 1 2 0
627 4 C 1.008 -0.793943 -5.85573 -8.79637 0.0169641 0.00800244 0.00639681 -1 1 0
1084 12 C 15.999 -1.87206 -2.85978 -7.03527 0.00260205 -0.00118921 0.00642094 0 0 0
1305 4 C 1.008 -3.77668 0.911253 -7.56127 -0.00548089 0.0047383 -0.000642543 0 -1 0
1303 12 C 15.999 -3.50259 0.84337 -8.47587 0.00565872 0.00535538 0.00264715 0 -1 0
747 4 C 1.008 -2.55601 -6.61614 -3.70314 -0.0151935 -0.00371337 -0.00172429 0 0 0
390 4 C 1.008 -3.68999 -6.79569 -5.45769 -0.00912384 0.0320337 -0.0266527 0 1 0
565 12 C 15.999 -8.75437 -0.741174 -11.4644 0.00301101 0.00101754 -0.00714885 0 1 0
1185 4 C 1.008 -9.94596 0.0030885 -9.62189 -0.00707164 -0.00386836 -0.00457792 0 0 0
1184 4 C 1.008 9.20147 0.132729 -8.52996 -0.00746087 -0.00724639 -0.0045502 -1 0 0
1080 4 C 1.008 -2.14271 -8.77021 -10.6983 -0.0130919 0.0113513 -0.00805245 0 0 0
1078 12 C 15.999 -1.61744 -8.26068 -11.3153 -0.00435942 0.00372336 -0.0069314 0 0 0
963 4 C 1.008 -6.16678 -2.46 -11.4033 0.0166515 -0.00881801 -0.00745744 1 0 1
176 4 C 1.008 7.75523 -7.76768 -6.05351 -0.0150374 -0.010373 -0.0188269 -1 1 0
314 4 C 1.008 -7.29468 9.04251 -7.20478 -0.0343683 0.00956466 0.00915817 -1 -1 0