1542
Atoms. Timestep: 40000
N 1.15205 1.31482 0.67951
H 0.135193 1.51744 0.760405
H 1.3469 0.552048 1.35897
H 1.29262 0.870118 -0.249896
C 1.98265 2.55927 0.857769
H 1.96671 2.77966 1.91475
C 3.45007 2.29347 0.34724
H 3.81856 1.33803 0.778058
H 4.10638 3.07569 0.78503
C 3.60979 2.36764 -1.20288
H 2.97852 3.18276 -1.61681
H 3.33966 1.40013 -1.67745
C 5.10765 2.64513 -1.7587
H 5.80845 1.89366 -1.33628
H 5.40021 3.67713 -1.46943
N 5.04042 2.60549 -3.22712
H 4.39595 3.29641 -3.55461
C 5.3852 1.54053 -4.04511
N 5.20433 1.7017 -5.32755
H 5.23696 2.59124 -5.78315
H 5.09015 0.886352 -5.89506
N 5.54828 0.302951 -3.63173
H 5.26047 0.0488432 -2.70852
H 5.85462 -0.376391 -4.29845
C 1.49122 3.91969 0.215139
O 0.408993 3.96924 -0.387611
O 2.2285 4.89354 0.307128
O -4.97159 -3.35179 -2.9866
H -4.34056 -2.96212 -2.38155
H -5.8245 -3.17961 -2.58775
O -4.24918 0.0770274 -15.1906
H -4.21344 1.03348 -15.1783
H -3.36669 -0.192849 -15.4447
O -5.08024 0.945991 -12.7611
H -4.85676 0.585751 -13.6191
H -5.20028 1.88261 -12.9178
O -5.80053 3.38059 -13.4759
H -6.722 3.43944 -13.2236
H -5.80945 3.43474 -14.4313
O -3.41112 4.57828 3.03838
H -2.50604 4.65316 2.73603
H -3.35414 4.66469 3.98981
O 3.05477 8.12349 -10.8948
H 3.09462 8.22961 -11.8451
H 2.58538 8.89853 -10.5863
O -9.05896 0.929259 -14.7658
H -8.34615 0.290402 -14.7639
H -8.68915 1.70269 -14.3401
O -2.98231 -0.801684 -9.43891
H -3.5564 -1.39525 -8.95491
H -2.92726 -0.0198222 -8.88955
O 7.43798 -2.5956 -16.3897
H 7.27162 -2.14652 -17.2183
H 6.65529 -2.42821 -15.8648
O 2.69004 -6.2555 -6.90465
H 2.676 -6.0224 -5.97652
H 2.26547 -7.11251 -6.94333
O -0.583589 -4.4586 -10.168
H -0.205439 -5.27328 -10.4989
H -0.390444 -4.4678 -9.23071
O -0.64433 4.81737 -17.5307
H -0.370128 5.41304 -18.2279
H -1.52679 5.1078 -17.3002
O -1.04583 2.52338 -6.22151
H -0.522362 3.22355 -5.83174
H -0.768763 2.49807 -7.13723
O 8.66714 -4.53262 -6.28701
H 9.03344 -3.80629 -5.78262
H 8.95826 -4.37225 -7.1845
O 6.05169 -3.77156 -11.2549
H 5.59693 -3.52567 -10.4494
H 5.37894 -4.18993 -11.792
O -1.37648 5.4422 -14.4806
H -1.10784 4.93705 -15.2479
H -2.29946 5.22008 -14.3582
O -1.94804 -8.54846 1.69611
H -1.44003 -8.35916 2.48486
H -1.49865 -9.29176 1.29395
O 1.95733 9.82829 -17.3286
H 1.27704 9.15671 -17.2794
H 1.5141 -9.3877 -17.6974
O -3.81643 -2.05055 -0.577237
H -2.85956 -2.03378 -0.558978
H -4.07482 -1.13684 -0.456386
O 0.942425 9.92911 -10.0553
H 1.13604 -9.41119 -10.7404
H 0.0317494 -9.87834 -9.81631
O 2.11649 3.87584 -7.05462
H 2.84562 4.02736 -7.65588
H 1.45722 4.52138 -7.30927
O 8.84027 -9.61038 -16.4031
H 8.51774 9.56042 -16.0065
H 9.28117 -9.15162 -15.6882
O 8.49974 7.79477 -15.4764
H 8.12368 6.95807 -15.7497
H 8.54795 7.7359 -14.5224
O -7.5124 2.25915 -17.3262
H -7.66123 1.63021 -18.0321
H -8.22443 2.09792 -16.7072
O 1.72573 4.796 -11.9289
H 2.59815 4.44082 -11.7588
H 1.424 4.3284 -12.7076
O -1.03227 -1.98776 -0.0216864
H -0.777898 -2.76791 0.47108
H -0.800434 -1.25626 0.550396
O 0.2919 8.51625 16.8089
H -0.59531 8.87501 16.8284
H 0.462531 8.24872 17.7118
O -0.475754 -1.48305 -17.7565
H -0.886355 -2.08424 -17.1351
H -1.17743 -1.25022 18.2998
O -3.05947 1.39172 -7.74583
H -2.57168 0.88261 -7.09856
H -2.99704 2.29555 -7.43696
O -4.19985 -6.19591 -17.466
H -3.30585 -5.88705 -17.6129
H -4.32955 -6.11472 -16.5212
O 2.36044 -0.882222 15.0813
H 2.9758 -0.149108 15.0712
H 2.20047 -1.04848 16.0101
O 4.41249 -5.10726 -16.8682
H 4.2389 -5.46729 -15.9986
H 5.36617 -5.03894 -16.9137
O 0.648046 -7.02286 -14.1887
H 1.38173 -7.6147 -14.0224
H 1.02623 -6.31092 -14.7047
O 8.79473 -1.5685 -8.50662
H 8.91351 -2.48431 -8.75838
H 8.6135 -1.11485 -9.32964
O 9.71815 2.64853 -11.6292
H 9.45691 3.02477 -10.7889
H 9.83647 1.71605 -11.4484
O -7.39721 2.36659 0.0475832
H -8.14278 1.79014 0.215097
H -7.76775 3.24902 0.0636704
O -6.7967 7.1259 -14.1593
H -6.38595 7.82263 -14.6712
H -7.31858 6.63658 -14.7952
O -6.33096 7.62904 -7.16361
H -6.62449 7.99848 -7.99629
H -5.38805 7.79302 -7.14738
O -3.97539 3.70495 -6.52144
H -3.86785 3.90271 -5.59125
H -4.69479 3.07422 -6.55111
O -3.89138 -6.70022 -14.6753
H -4.26431 -6.99019 -13.8429
H -3.18216 -7.31911 -14.8491
O -8.96246 6.61164 2.03218
H -8.59314 6.5896 2.91484
H -9.58655 7.33716 2.05117
O 0.330146 -9.74081 14.6311
H 0.759503 9.71382 15.3062
H -0.361271 9.67225 14.2895
O -3.51226 2.88989 -0.954056
H -2.9772 2.87939 -1.74754
H -4.20512 3.52357 -1.14008
O -5.9803 9.57551 -15.6845
H -6.86414 9.28225 -15.906
H -5.94347 -9.49914 -15.993
O 9.52267 0.0291988 -11.1998
H -9.87604 -0.478663 -11.3877
H 9.62164 0.297224 -10.2863
O -2.211 -0.144886 13.0611
H -1.29724 0.026774 13.2887
H -2.71179 0.206625 13.7971
O 5.81961 2.86676 -9.58575
H 5.21032 2.88114 -10.3237
H 6.19857 1.98797 -9.60447
O 9.21979 -3.30802 -12.0768
H 9.20219 -4.25797 -11.9606
H -10.042 -3.07539 -12.0116
O 3.96951 7.27293 -2.01321
H 4.55498 6.74265 -2.55373
H 3.14927 6.77995 -1.99305
O -9.2953 9.17928 -12.0738
H -8.53228 9.7292 -12.2517
H -9.01695 8.29649 -12.3176
O 8.6039 -7.86822 2.88155
H 8.83601 -7.73573 1.96257
H 9.39993 -7.64612 3.36444
O -5.26754 -9.65099 -10.3833
H -5.39679 -8.73664 -10.1313
H -4.46841 -9.91493 -9.92731
O -5.04754 5.95325 -12.3989
H -5.65992 6.41265 -12.9734
H -5.11706 5.03479 -12.6593
O -3.75443 -0.646806 -17.9659
H -3.6333 -1.51464 18.3131
H -4.14852 -0.81692 -17.1104
O 8.58915 -4.32155 -9.11736
H 7.99797 -5.06839 -9.02269
H 8.49071 -4.0518 -10.0303
O -0.458099 -3.06391 -12.5052
H -0.562118 -3.57529 -11.7029
H 0.0323294 -2.2881 -12.2335
O -8.3487 9.13968 -5.11043
H -7.91063 8.90657 -5.92883
H -8.5633 -9.91269 -5.20881
O -3.52679 -1.76806 4.24732
H -3.36898 -2.69501 4.06817
H -3.61647 -1.36829 3.38238
O 8.77818 3.75861 -6.46063
H 8.34676 4.56762 -6.18572
H 9.14182 3.96149 -7.32237
O 9.37358 2.64383 8.11857
H 8.83931 3.25711 8.62315
H -9.96084 3.07117 8.04773
O 4.33856 -2.51958 -18.1837
H 3.75157 -2.80758 17.7815
H 4.44168 -3.28957 -17.6246
O 2.76798 -9.09843 -14.8592
H 2.56212 -9.48907 -15.7084
H 3.54579 -9.56964 -14.5606
O 8.76677 -6.11569 -12.0591
H 8.89185 -6.72904 -11.3351
H 9.62516 -6.06213 -12.4792
O 1.10436 5.81406 -4.12998
H 0.406873 5.69272 -4.7741
H 1.62389 6.54122 -4.47279
O -7.57766 3.35175 -10.4188
H -8.25639 3.13537 -11.058
H -7.60456 2.63269 -9.78769
O 0.551435 3.10943 -2.92796
H 0.450127 3.32076 -2.00004
H 0.839837 3.92858 -3.33046
O -0.174012 1.18133 17.036
H -0.917642 1.71129 17.323
H -0.534582 0.301479 16.926
O -6.26417 1.04818 -9.08071
H -6.48126 0.700855 -8.21571
H -6.1653 0.272524 -9.63272
O -1.63732 -8.83418 -9.91344
H -2.03715 -8.03752 -10.2622
H -1.66207 -8.71899 -8.96367
O -8.95532 -6.91936 15.2428
H -9.2178 -7.09862 14.3401
H -9.73365 -7.11873 15.763
O 8.87714 1.16033 -5.98326
H 8.53926 2.0484 -6.09901
H 8.91832 1.04101 -5.03458
O -8.83989 -1.79672 -2.32519
H -8.73556 -0.890013 -2.61363
H -9.56268 -1.76746 -1.69844
O 2.837 5.03382 17.9026
H 3.01801 4.10671 17.748
H 1.98296 5.18257 17.4968
O 9.1199 -0.576639 15.7316
H 8.92529 0.352893 15.8512
H 9.56017 -0.622294 14.883
O -0.934949 5.17756 -5.6468
H -1.2583 5.95186 -6.1073
H -1.69514 4.8489 -5.16695
O 0.576438 5.13145 16.326
H 0.300776 4.22665 16.1791
H -0.22883 5.64317 16.2491
O 3.22419 7.88465 5.14359
H 3.93252 7.54711 4.59544
H 3.40502 7.53047 6.01413
O 0.795408 -1.99598 -8.00796
H 1.62815 -2.09247 -8.4699
H 0.369199 -2.84799 -8.10101
O -9.91037 1.6601 -8.9873
H 9.86272 2.51028 -8.84143
H 9.911 1.09438 -8.30787
O 9.05396 7.31148 -8.82427
H 9.82015 6.73837 -8.79721
H 9.22962 7.91298 -9.54773
O -3.36272 -2.90051 -7.46653
H -3.47177 -3.80925 -7.74674
H -3.69429 -2.88482 -6.56888
O 8.9319 0.361244 -2.92431
H 8.7137 0.646962 -2.03734
H 9.82873 0.666605 -3.061
O -2.94019 6.94377 -10.9001
H -3.00483 6.36944 -10.1372
H -3.65907 6.66869 -11.4691
O 1.22387 -7.13642 5.57636
H 1.88529 -7.40469 6.21405
H 1.3803 -7.69852 4.81766
O 0.649353 -8.07977 17.2902
H 0.729384 -8.4549 16.4134
H 1.30512 -7.38289 17.3139
O -3.92161 -0.476699 1.83107
H -4.4724 -0.00337552 1.2076
H -3.17574 0.10406 1.98146
O 3.9193 7.00166 -15.8331
H 3.16201 6.42971 -15.958
H 4.52657 6.48376 -15.3047
O 9.20149 -7.78539 -9.89625
H 9.25558 -8.73097 -10.0348
H 9.02922 -7.68954 -8.95972
O 1.68434 6.43976 2.52338
H 1.85978 5.83675 1.80113
H 2.22012 6.11155 3.24537
O 5.02677 6.89543 3.62014
H 4.93699 6.70786 2.68595
H 5.77718 6.3708 3.89916
O 8.00681 8.57569 17.5368
H 7.1202 8.52044 17.1804
H 7.91896 9.12725 18.314
O 7.30951 4.91882 -11.0234
H 6.86183 5.76448 -11.0493
H 6.96845 4.49062 -10.2383
O 6.38815 1.85822 -16.8939
H 7.33221 1.70531 -16.854
H 6.19858 1.94642 -17.8278
O 2.06235 -3.4257 -15.1546
H 2.80262 -3.10007 -15.6666
H 2.06 -2.8844 -14.3653
O -4.75105 3.11371 -10.1621
H -5.01238 2.26076 -9.81513
H -5.57137 3.5214 -10.4397
O 7.0613 -5.24396 -17.4415
H 7.78395 -5.59629 -16.9221
H 7.12329 -4.29568 -17.3268
O -8.73446 9.16517 -8.28121
H -8.57298 9.34843 -9.20656
H -8.67466 -9.96063 -7.85349
O -8.37993 6.13623 -6.07657
H -7.86034 5.35575 -6.26917
H -7.89321 6.8544 -6.48092
O -1.94014 -8.53004 -18.0246
H -1.01753 -8.49544 -18.2773
H -2.36126 -7.85851 18.103
O -1.58874 5.53188 -1.01756
H -2.25401 4.88292 -0.78848
H -0.772256 5.17071 -0.672429
O 4.37976 -0.301425 -16.5209
H 4.56525 -0.741848 -17.3502
H 4.60196 0.615715 -16.6813
O -6.68415 -3.43318 -8.52957
H -7.44944 -3.05984 -8.96673
H -6.66115 -3.00128 -7.6758
O 2.74883 -9.53444 -4.66745
H 3.08922 -9.03332 -3.92647
H 1.99224 -9.03197 -4.96962
O 9.24783 4.26523 -9.32338
H 9.90613 4.9181 -9.08545
H 8.82896 4.62134 -10.1068
O -8.98333 -5.14451 -0.799289
H -8.16962 -4.65822 -0.666549
H -8.77155 -5.78616 -1.47717
O -4.90364 3.1673 -17.0646
H -5.00999 3.88958 -17.6836
H -5.67646 2.61908 -17.2004
O 5.15593 4.5747 -17.3119
H 4.43813 5.16134 -17.5503
H 5.0732 3.83652 -17.9155
O 6.84064 3.86965 -13.5106
H 6.87199 2.91555 -13.5809
H 7.08417 4.05154 -12.6031
O 6.32098 7.76802 13.0814
H 6.19413 7.46892 12.1812
H 6.04452 7.02765 13.6213
O 0.764066 7.9332 -8.21571
H 1.19985 7.12505 -8.48624
H 0.931299 8.54707 -8.93074
O -6.88646 -7.30992 9.48935
H -6.6374 -7.9413 10.1642
H -6.42233 -7.60177 8.70486
O -5.91512 -7.6801 -6.18126
H -5.71573 -6.85979 -5.73016
H -6.86409 -7.77468 -6.09908
O 7.0535 -2.79942 -2.51148
H 7.34938 -1.90943 -2.70277
H 6.44159 -3.00598 -3.21786
O -4.67429 8.57476 2.09043
H -5.5942 8.57979 2.35492
H -4.53282 9.4361 1.69768
O 9.11236 9.4276 13.5892
H 8.31565 8.95716 13.8345
H 9.04376 9.53757 12.641
O 0.351544 -6.53567 -11.3873
H -0.00142991 -6.55186 -12.2768
H 1.15635 -7.05127 -11.439
O -2.29754 -5.9459 0.792777
H -2.09915 -6.68226 1.37118
H -1.66955 -6.02856 0.0752359
O -0.596282 -3.46099 -15.2976
H 0.334724 -3.27534 -15.42
H -0.764288 -3.25003 -14.3793
O -1.5557 9.98528 -12.4142
H -1.97328 9.14769 -12.2134
H -1.53644 -9.52959 -11.5779
O 0.309375 -3.78282 17.6695
H -0.1007 -3.06229 18.1478
H 0.322908 -3.48906 16.7587
O -3.05328 4.89715 -8.86621
H -3.33597 4.84309 -7.95346
H -3.45564 4.1376 -9.28735
O -5.42419 -0.994232 -10.7892
H -5.38229 -0.232761 -11.3676
H -4.50966 -1.23922 -10.6484
O -6.57981 -8.26914 -17.3444
H -7.21802 -8.10067 -18.0375
H -5.75739 -7.91681 -17.6845
O -5.64189 -5.6401 5.48098
H -6.07145 -4.79026 5.38364
H -4.73217 -5.47928 5.23043
O 3.44291 -8.95021 5.4269
H 3.74893 -9.27414 6.2739
H 3.64485 -9.65617 4.81294
O 1.2401 0.0776696 -2.14314
H 0.969682 -0.82773 -2.29594
H 0.857478 0.568432 -2.87034
O 5.57304 1.52284 2.48245
H 4.94846 1.84129 3.13405
H 5.8836 0.688916 2.83503
O -2.67036 -6.30869 -7.14252
H -3.3484 -6.16359 -6.48276
H -1.97611 -5.69093 -6.91314
O 9.87979 3.00964 -3.95019
H 9.30533 3.33871 -4.64142
H -9.44226 3.34952 -4.17564
O -8.29436 -7.87677 -9.25837
H -9.10764 -7.41839 -9.46977
H -8.36999 -8.08231 -8.32672
O 7.02551 3.65899 1.19896
H 7.58544 3.72339 1.9725
H 6.29091 3.11301 1.4791
O 5.60053 5.56472 14.7271
H 6.1829 4.94116 15.1609
H 5.21546 5.07014 14.0038
O -8.56798 3.31086 -13.4308
H -9.32848 3.04351 -12.9147
H -8.83701 4.12903 -13.8484
O 0.61989 1.00157 -4.75699
H -0.0411415 1.1493 -5.43322
H 0.747757 1.86065 -4.35474
O -10.0785 3.24312 -16.4383
H 9.60611 3.00679 -17.2172
H 9.83008 2.61499 -15.7724
O -2.14267 2.15437 -3.38688
H -1.18688 2.17472 -3.33915
H -2.33719 2.19811 -4.32294
O -5.14432 -8.3028 7.58115
H -4.43234 -8.77727 8.01026
H -4.89746 -8.28461 6.65665
O 0.435756 -3.5993 -4.92384
H 0.200082 -3.24504 -4.06655
H 1.01179 -4.33829 -4.72814
O -8.56174 0.896604 -2.4822
H -7.78708 1.36282 -2.79642
H -8.53249 0.996677 -1.53085
O -7.86962 4.80948 -2.77497
H -8.49848 5.50148 -2.97967
H -7.76058 4.85759 -1.82537
O -0.0142955 1.36857 -9.7166
H 0.835438 1.3059 -9.28049
H -0.0962674 2.29307 -9.95069
O 3.43686 4.2519 -4.70896
H 3.49923 4.11193 -5.65366
H 2.50226 4.37976 -4.54649
O -4.21729 -7.23211 -3.15585
H -5.06326 -7.37308 -2.73085
H -3.57713 -7.59061 -2.54122
O -9.74846 6.71853 -3.45474
H -9.67619 6.62875 -4.40482
H -9.12767 7.41202 -3.23134
O 4.98427 -2.26103 -9.17194
H 5.12139 -3.0199 -8.605
H 4.07475 -2.33804 -9.46014
O 2.13545 -8.91947 -12.0934
H 2.32056 -9.40413 -12.8977
H 2.98981 -8.59893 -11.8044
O -7.10697 6.84382 15.8325
H -7.42763 7.36595 16.5678
H -7.88895 6.41741 15.482
O -2.22098 -1.00588 -3.50142
H -2.99479 -0.446272 -3.56688
H -1.69616 -0.780541 -4.26942
O -6.82437 -0.231948 -6.45912
H -6.23041 -0.902676 -6.12218
H -7.69601 -0.61801 -6.3729
O -2.02306 3.33291 -11.8169
H -2.23493 3.04152 -12.7036
H -2.87002 3.54788 -11.4262
O 8.52041 5.5871 18.1264
H 8.14014 5.08826 -17.8149
H 8.06198 6.42712 18.1471
O -8.69514 -7.32689 -16.1434
H -8.30699 -6.66782 -15.568
H -7.95096 -7.84284 -16.4535
O 4.79122 -8.55116 -11.4919
H 5.22261 -9.25002 -11.9835
H 5.24189 -8.53829 -10.6477
O 9.05133 8.19444 -6.24636
H 9.15183 7.86 -7.13744
H 9.93664 8.4457 -5.9831
O 3.30644 -2.56595 0.721844
H 4.23817 -2.78085 0.765625
H 3.0062 -2.61381 1.62933
O 7.17906 1.15526 17.0086
H 6.88717 0.25162 17.1289
H 8.07407 1.16552 17.3478
O -5.40075 3.6489 16.0003
H -5.2503 2.70912 15.8983
H -6.18109 3.82547 15.4749
O -6.56423 9.95878 -2.44824
H -7.43399 9.56636 -2.52409
H -6.18353 9.86928 -3.32176
O -1.85975 7.31667 -7.09414
H -2.59703 7.68882 -7.57796
H -1.14307 7.29472 -7.72817
O 7.15936 3.18241 15.1241
H 7.03872 2.59679 14.3767
H 7.1188 2.60752 15.8882
O 1.77088 0.77564 -15.4383
H 1.41585 1.28195 -16.1688
H 2.71683 0.774096 -15.5846
O 9.61994 -7.08439 17.9149
H 9.88159 -7.64917 -18.0222
H 8.69585 -6.89559 18.0782
O 3.1673 8.25323 12.3289
H 2.87357 9.15553 12.2031
H 2.69143 7.9516 13.1025
O -0.521823 -0.983971 -10.6181
H -0.395548 -0.115382 -10.2362
H -1.35538 -1.28592 -10.2573
O 8.39895 9.50764 -10.8089
H 9.21971 9.43391 -11.2958
H 7.72324 9.25405 -11.4375
O -4.08864 -9.28038 13.904
H -4.73906 -8.59077 13.7713
H -3.9342 -9.28597 14.8485
O -4.96519 -1.98884 -5.30667
H -4.63656 -1.1512 -4.98023
H -5.00613 -2.54911 -4.53177
O -5.33139 7.11727 -3.75864
H -5.14172 7.93 -4.22731
H -6.18707 6.84371 -4.08905
O 7.38815 1.18179 -13.6169
H 7.73179 1.15082 -14.5096
H 7.52352 0.297336 -13.2769
O -1.49029 -8.33349 -14.6105
H -1.54283 -8.90011 -13.8409
H -0.705138 -7.80525 -14.4665
O -4.94905 -9.87911 -4.57635
H -5.29864 -9.12041 -5.0436
H -3.99944 -9.76255 -4.60591
O 9.43854 8.93048 -0.115403
H 9.18874 9.7523 0.306952
H 8.92316 8.26216 0.336147
O -3.07736 9.10711 -16.9229
H -2.76372 9.9745 -17.1788
H -3.8322 9.28112 -16.3607
O -8.41857 -1.55515 -11.0344
H -8.57862 -2.30271 -11.6103
H -7.48995 -1.35545 -11.1527
O 6.56176 8.78575 -12.9486
H 6.34617 9.5996 -13.4039
H 6.12992 8.10232 -13.461
O 0.446835 7.58359 -17.1269
H 0.0994522 8.00667 -16.3418
H 0.395066 6.64673 -16.9376
O -6.69891 -9.88132 -12.8424
H -6.16959 -9.73618 -12.0583
H -6.14647 -9.58048 -13.5637
O 8.82803 0.339526 -16.1664
H 9.58193 0.532507 -15.6092
H 9.01623 -0.523941 -16.5341
O -6.72727 2.01428 2.73296
H -6.92813 2.84054 3.17242
H -6.95952 2.16704 1.81717
O 9.79194 -8.99515 -13.8826
H -9.96902 -8.18562 -13.6024
H 9.95803 -9.61301 -13.1707
O 8.98437 -8.56631 -3.76497
H 9.56255 -8.70294 -4.51535
H 8.54151 -7.73831 -3.95077
O 6.40211 9.71643 -4.13761
H 6.71593 -9.98272 -3.27817
H 6.10906 -9.45689 -4.56136
O 6.67283 -6.34936 -9.71062
H 6.45355 -6.14941 -10.6205
H 6.58006 -7.29977 -9.64467
O 8.04868 7.74549 -2.21651
H 8.30114 8.53616 -1.73978
H 8.82832 7.19074 -2.19118
O 3.66893 -3.90295 -12.767
H 3.88882 -3.15438 -13.3214
H 3.74503 -4.66123 -13.3461
O -6.73511 -7.33004 -1.99747
H -7.55093 -7.09669 -2.44035
H -6.66047 -8.27703 -2.11521
O 0.615619 6.79243 -13.146
H 0.917209 6.22483 -12.4368
H -0.254619 6.45994 -13.3659
O 5.12984 6.56573 -4.60562
H 4.38205 7.1518 -4.72203
H 4.82413 5.71906 -4.93104
O 9.92889 -2.28449 -17.1059
H 9.93722 -2.41907 -18.0534
H 9.11367 -2.69163 -16.8129
O 4.61307 0.811424 -12.8352
H 4.79108 1.17346 -13.7031
H 5.46408 0.501725 -12.5253
O 5.65177 7.16927 -10.8048
H 4.8918 7.60525 -10.4194
H 5.98845 7.7957 -11.4454
O 2.53105 -0.966122 -13.5599
H 3.02415 -0.427285 -12.9413
H 2.07506 -0.335395 -14.117
O -0.38983 -2.49516 -2.57582
H -0.411015 -2.52982 -1.61964
H -1.21684 -2.07921 -2.81923
O 2.48576 -0.24688 17.7402
H 1.5639 0.00677866 17.6948
H 2.56509 -0.715536 -18.0933
O -6.8859 -0.68161 -14.958
H -6.12575 -0.424195 -15.4796
H -7.26469 -1.4205 -15.4342
O -0.345206 4.28046 -9.61004
H -1.2743 4.34357 -9.38863
H -0.320663 4.35046 -10.5642
O 1.54052 9.75851 -1.31249
H 1.41531 8.83735 -1.08442
H 2.48926 9.86008 -1.38859
O 6.18617 -9.04828 -9.20418
H 5.75018 -8.95319 -8.3575
H 6.99041 -9.52862 -9.00749
O -8.18764 -7.37273 -13.2075
H -7.85767 -8.27104 -13.1876
H -7.5309 -6.86521 -12.7307
O 7.40012 5.21291 -15.9576
H 7.30985 4.65132 -15.1878
H 6.5829 5.0909 -16.4407
O -6.59353 8.02222 -10.1102
H -6.13102 7.53572 -10.7924
H -6.30435 8.92768 -10.223
O 8.45462 -3.10649 13.3731
H 8.23041 -3.19185 14.2996
H 8.43281 -4.00261 13.0375
O -2.01892 8.31658 -0.643063
H -1.90483 7.38135 -0.812057
H -1.74121 8.74264 -1.45385
O 5.68314 -3.07062 11.5991
H 5.89132 -3.98231 11.3949
H 6.06651 -2.92488 12.4638
O -2.21545 -8.84244 -4.60049
H -2.35562 -8.07903 -4.04041
H -1.71278 -9.44956 -4.05748
O 9.97736 2.3773 14.822
H -9.47496 2.91854 14.5356
H 9.20383 2.81854 14.4711
O 8.33139 2.8011 -1.62969
H 7.93556 3.66445 -1.51065
H 8.85662 2.88557 -2.42531
O -5.23055 -6.74111 -12.3066
H -5.06419 -6.99844 -11.3999
H -5.36481 -5.79422 -12.2666
O 0.257387 -4.71504 -7.43856
H 1.04914 -5.24709 -7.51776
H 0.323887 -4.31329 -6.57244
O -3.3122 -4.10951 -14.6827
H -3.55452 -5.01715 -14.4992
H -2.35513 -4.11498 -14.6978
O -2.52848 2.88733 -15.2542
H -3.12909 3.17554 -15.9414
H -2.08604 2.12451 -15.6264
O 4.55583 -8.8562 -6.90663
H 3.89067 -9.03813 -6.24289
H 4.98089 -8.05275 -6.60663
O -8.74274 6.63982 -11.8035
H -8.05848 6.46547 -12.4497
H -8.27148 6.96717 -11.0375
O -3.47666 9.01109 -8.82519
H -2.70557 9.52466 -8.58461
H -3.15229 8.37585 -9.46343
O 9.24461 -4.36229 -2.66607
H 8.60545 -3.66261 -2.53136
H 9.62484 -4.51001 -1.80028
O 2.60466 1.41611 -8.41449
H 3.10414 0.827511 -7.84862
H 2.31017 2.11641 -7.83227
O 4.63888 8.39931 -7.51807
H 4.44278 8.59477 -8.4342
H 4.78165 9.25579 -7.11528
O 6.95868 -1.34008 17.7879
H 7.36256 -1.86973 17.1006
H 6.06191 -1.66923 17.8488
O -4.99391 5.21856 -1.55144
H -5.01343 5.60099 -0.674324
H -5.36448 5.89614 -2.11684
O 3.92945 -6.53364 -14.3952
H 4.84803 -6.72227 -14.2032
H 3.506 -7.39197 -14.409
O -2.49436 -7.12683 7.8361
H -2.95742 -7.62767 7.16468
H -3.01795 -6.33328 7.94736
O 6.72823 6.60912 -7.06719
H 5.92482 7.07102 -7.30675
H 7.40029 6.98625 -7.63484
O -0.701016 4.81796 2.19452
H -0.13109 5.36382 2.73615
H -0.24436 4.75269 1.35594
O 5.05771 -5.92911 1.83312
H 4.58822 -5.09887 1.91385
H 4.89039 -6.38086 2.66012
O 0.630104 -7.06846 2.24562
H 0.999533 -7.92094 2.47588
H 0.771252 -6.99278 1.30206
O 0.577163 -7.74767 -0.69891
H 0.932655 -7.24029 -1.42847
H 0.888771 -8.6396 -0.852453
O 2.80007 -3.7294 16.3323
H 2.42366 -4.21293 15.5971
H 2.2317 -3.93896 17.0733
O 8.28225 -9.15152 -7.39172
H 8.2389 9.96948 -6.97171
H 9.12978 -8.79605 -7.12428
O 9.09861 -6.26383 -15.8173
H 9.87516 -6.74697 -16.0997
H 9.44518 -5.47426 -15.4018
O -1.83376 -8.93216 -7.20792
H -2.13855 -8.03689 -7.3557
H -2.02516 -9.10161 -6.28564
O 9.26935 -8.02672 -0.312463
H 9.69281 -8.44129 -1.06403
H 9.95211 -7.98975 0.357278
O -8.40273 5.14677 18.1514
H -8.50883 4.28545 17.7476
H -8.27451 4.96147 -17.5827
O 7.15139 5.31714 -0.948573
H 7.14945 4.98064 -0.0526172
H 7.08521 6.26679 -0.848481
O -9.2397 -1.45505 -6.83831
H -9.66025 -1.7473 -6.02977
H -9.96453 -1.30597 -7.44535
O -4.42779 -9.04708 0.521066
H -4.11398 -9.003 -0.382007
H -3.68962 -8.73914 1.04681
O 2.88549 -0.22931 2.60592
H 3.81983 -0.424887 2.53526
H 2.61602 -0.639143 3.42776
O -9.17119 2.6462 4.95255
H -8.84929 1.88443 5.43447
H -8.79059 3.39697 5.40825
O 0.290837 -9.78134 3.94888
H 0.378953 9.72792 4.77752
H 0.338297 9.51642 3.27927
O -8.82598 -6.15634 -3.58694
H -9.52102 -5.5005 -3.64202
H -8.87116 -6.62451 -4.42048
O 0.402008 -3.86777 1.88685
H 1.12021 -3.89479 2.51895
H -0.124094 -4.64169 2.08806
O -5.926 2.15721 10.7982
H -6.77406 2.54372 11.0165
H -5.31998 2.89808 10.7885
O -0.186706 -0.666698 2.1153
H 0.298115 -1.34572 2.58438
H -0.710708 -0.235914 2.79052
O 4.24061 9.05762 10.0742
H 4.54149 8.39385 10.6947
H 3.6007 9.57287 10.5654
O 7.87833 7.56702 1.51123
H 7.57839 6.71517 1.82838
H 8.03987 8.0757 2.3057
O 3.10765 -6.71362 -1.96269
H 4.03981 -6.51456 -1.87499
H 2.6634 -5.93079 -1.63708
O 5.27964 -7.16296 -4.10592
H 5.23775 -6.97664 -3.16812
H 6.11743 -6.79475 -4.38652
O -6.08441 5.63082 10.9494
H -6.84599 5.09434 11.1694
H -6.24073 6.46358 11.3946
O 5.92826 -3.40264 -4.92642
H 5.81133 -4.14794 -5.51547
H 6.22268 -2.69114 -5.49494
O -7.59785 -9.94471 4.02359
H -6.76712 -9.47064 3.98636
H -8.22641 -9.30202 4.3523
O -3.81726 9.15025 17.1271
H -3.75653 8.90738 18.0508
H -3.94308 -9.8809 17.1361
O 9.37647 5.24192 15.5535
H 9.23252 5.23611 16.4997
H 8.63534 4.75361 15.1951
O 8.40623 2.77938 5.54277
H 8.82904 2.57054 6.37561
H 9.07772 2.60665 4.88296
O -5.85631 5.20918 7.44197
H -5.57082 5.22946 8.35522
H -6.27105 4.35265 7.33914
O 6.63413 -3.44971 4.72517
H 6.87683 -4.34053 4.47271
H 7.46646 -2.97991 4.77752
O 6.20796 -9.1611 -14.6502
H 6.34978 -9.36869 -15.5736
H 6.66919 -8.33304 -14.5168
O 8.05511 5.52487 -4.15649
H 7.32289 5.5454 -3.54042
H 8.81089 5.80565 -3.64063
O 5.36673 -1.30533 3.13837
H 5.01488 -1.80949 3.87192
H 6.25584 -1.64012 3.02161
O 6.92335 9.31559 3.54439
H 6.02795 9.11653 3.2708
H 6.91368 -9.72601 3.73285
O 3.0933 -7.05637 7.9768
H 2.47969 -7.57442 8.49762
H 3.68899 -7.70156 7.59592
O 4.26462 9.98155 -1.46614
H 4.37287 9.03199 -1.51954
H 5.15732 -9.65362 -1.48634
O -6.53216 -3.61918 -0.41111
H -5.59309 -3.4418 -0.3571
H -6.94426 -2.85567 -0.00686882
O 4.55734 0.877481 6.5259
H 3.87269 1.06264 7.1686
H 4.51975 1.61444 5.91632
O 6.04501 -7.49848 11.5246
H 5.65093 -6.80745 10.9923
H 5.46716 -7.57556 12.2837
O 7.02504 -1.16559 -5.60818
H 7.70193 -1.70693 -5.20204
H 7.51049 -0.503017 -6.09958
O 9.80841 -8.8515 8.31549
H -9.84866 -9.58473 8.62643
H 9.04292 -9.26275 7.91414
O 1.20703 7.91955 8.78738
H 0.900156 7.73697 9.67534
H 2.00022 7.39189 8.69433
O -3.41522 5.56423 6.0897
H -3.29465 6.30035 6.68944
H -4.36305 5.43495 6.05591
O 5.84426 4.69395 7.53038
H 5.93563 3.98443 8.16625
H 6.2715 4.36416 6.73999
O 6.65847 -9.65167 9.78557
H 5.98705 9.68433 10.0107
H 6.42351 -8.87335 10.2907
O -4.51541 1.71787 13.5515
H -4.5117 2.14981 12.6974
H -5.16418 1.01948 13.4645
O -4.48906 -4.73693 13.0808
H -4.06706 -4.0033 12.6338
H -5.42581 -4.59307 12.9466
O 0.363084 -7.72578 12.8503
H 0.47739 -8.56978 13.2871
H -0.561961 -7.7058 12.6052
O 4.12819 2.45838 17.4487
H 3.90268 1.52831 17.4672
H 4.38339 2.62546 16.5415
O -6.79094 4.83978 3.33073
H -6.06969 4.78164 2.70422
H -6.90079 5.77826 3.48378
O -0.747111 5.7217 5.24248
H -0.62538 6.58055 5.64712
H -1.69118 5.56897 5.28294
O -2.41314 7.95888 3.88631
H -1.71134 7.77398 3.2623
H -3.17462 8.15427 3.34033
O 7.602 -5.4322 0.134867
H 8.54578 -5.51432 0.271824
H 7.21965 -5.58887 0.998145
O -8.38698 8.08326 -1.43001
H -7.8508 7.47073 -0.926549
H -9.11847 8.29479 -0.850095
O -8.04323 -1.15951 9.14259
H -7.17199 -1.40616 9.45293
H -8.44394 -0.708446 9.88558
O -4.58216 8.45059 5.53031
H -4.36058 8.59492 6.4501
H -3.73632 8.39108 5.08627
O -1.47451 -9.17436 9.52603
H -1.7385 -8.44209 8.96906
H -2.29758 -9.59282 9.77834
O -7.52573 -1.56153 1.05968
H -7.8413 -0.662027 0.972848
H -8.26013 -2.03708 1.44786
O 1.16836 -9.02589 9.05761
H 1.17705 -9.9007 8.66925
H 0.24024 -8.80014 9.1198
O 6.46221 7.64258 7.65289
H 6.77713 6.92482 7.10353
H 5.52576 7.47307 7.75566
O 9.1121 -2.18824 5.09985
H 9.15745 -1.44519 5.70146
H 9.30697 -2.95063 5.64476
O -5.5679 5.47139 18.2042
H -5.63034 5.15273 17.3039
H -6.32017 6.05462 18.3051
O 0.226559 4.56956 13.1232
H -0.55159 4.42983 12.5837
H 0.290196 3.78058 13.6613
O -6.11772 -7.5439 13.6104
H -5.95461 -6.60452 13.5257
H -6.69535 -7.61965 14.3697
O -6.65311 -4.6613 9.5437
H -6.71856 -5.61624 9.5493
H -7.34515 -4.37682 8.94682
O 0.609834 8.60192 6.05081
H 1.42182 8.23287 5.70343
H 0.816822 8.82553 6.95807
O -3.53323 -8.47811 5.25068
H -2.74594 -8.38788 4.71387
H -4.25297 -8.4972 4.62004
O 1.69658 -4.33161 -1.22261
H 2.36241 -3.67904 -1.43949
H 1.53484 -4.20772 -0.287499
O 9.74091 -2.47677 2.28964
H 9.93365 -3.39657 2.47141
H 9.40467 -2.13383 3.1175
O 6.85616 -7.84219 15.04
H 6.96345 -7.61184 15.9627
H 6.19539 -8.53474 15.0408
O 7.79058 -6.1188 -4.22164
H 8.32301 -5.60833 -3.61168
H 7.86811 -5.65397 -5.05466
O -6.86837 -3.27675 5.48733
H -7.27338 -2.81706 4.752
H -6.35192 -2.60619 5.93432
O 5.78478 -5.65794 -1.83569
H 6.24621 -5.53868 -1.00571
H 6.45956 -5.54059 -2.50425
O -2.88763 6.44565 -17.7844
H -3.79735 6.19295 -17.9418
H -2.94724 7.22482 -17.2317
O 9.35132 -2.135 -4.4602
H 9.47767 -1.24145 -4.14114
H 9.75114 -2.68826 -3.78928
O -6.8763 7.83886 12.6452
H -7.74362 8.23853 12.5799
H -6.90697 7.32989 13.4552
O -5.31737 1.11291 7.33778
H -4.52254 1.43037 7.76632
H -5.66708 1.87906 6.88295
O 1.65603 4.90799 4.77816
H 0.731222 5.14462 4.70768
H 1.86436 5.02745 5.70459
O -0.896469 -5.59803 -1.78767
H -1.53025 -5.12332 -2.32537
H -0.259985 -4.93349 -1.52406
O -6.88929 7.53319 4.14674
H -6.01525 7.56532 4.53559
H -7.11792 8.45007 3.99416
O -6.49776 -9.26977 11.6267
H -6.63532 -8.72803 12.4036
H -6.10376 9.90498 11.9621
O -6.15701 3.002 5.60266
H -6.24208 2.35278 4.90456
H -6.27968 3.84381 5.16394
O 4.11639 -4.23747 5.30442
H 3.9673 -3.85677 6.16977
H 4.9155 -3.81426 4.99055
O 3.71936 -3.07661 -3.27893
H 4.4699 -3.03685 -3.87157
H 3.26827 -2.24207 -3.40656
O -6.84165 8.20937 8.03581
H -5.97052 7.84641 7.87575
H -7.3409 7.99113 7.24894
O 7.27434 0.595427 0.233136
H 7.27944 1.5066 -0.0600313
H 7.19683 0.650262 1.18546
O 6.13138 0.185149 -10.328
H 5.56743 -0.393197 -9.81457
H 6.53365 -0.388777 -10.9798
O 0.914753 -3.63587 11.8081
H 0.666305 -4.29479 11.1599
H 1.28474 -4.13988 12.5328
O 6.85485 -8.99764 -1.66109
H 7.09582 -8.51552 -0.870194
H 7.62604 -8.93496 -2.22453
O -1.27982 -1.55865 5.7401
H -1.52092 -1.69505 6.65619
H -2.0329 -1.87885 5.24363
O -7.1188 -4.91557 13.8419
H -7.92571 -5.38985 13.6415
H -7.37966 -3.99477 13.8593
O 5.12477 -2.19658 -14.8432
H 5.57169 -1.82409 -14.0832
H 4.85126 -1.43669 -15.3569
O 4.64818 6.85323 16.9636
H 4.02169 6.1961 17.2667
H 5.08676 6.44122 16.2193
O 0.146665 8.67407 -5.62138
H -0.620095 8.15303 -5.85973
H 0.772244 8.51805 -6.32875
O 9.75432 2.20663 2.70074
H -9.72777 2.37246 3.32547
H 9.36142 3.06616 2.54887
O -2.95807 7.6137 7.97509
H -2.16858 8.09902 7.73555
H -2.82155 7.37028 8.89055
O 5.96134 0.105095 10.408
H 5.15873 -0.330281 10.6952
H 6.18375 -0.322756 9.58129
O 4.25977 2.98082 4.4966
H 5.04568 3.51891 4.40157
H 3.53395 3.59062 4.36408
O -1.47096 -1.03834 -6.41073
H -1.87081 -1.89196 -6.5771
H -0.656152 -1.05302 -6.91274
O 2.31133 -5.38538 -4.15487
H 2.68418 -4.52853 -3.9475
H 2.53843 -5.93403 -3.40423
O 1.0313 -6.17323 10.5795
H 0.0821785 -6.26153 10.4924
H 1.21857 -6.46519 11.4715
O 4.80337 6.08093 0.978595
H 4.81727 6.75788 0.302117
H 4.0045 5.58342 0.803947
O 7.08052 5.26313 4.9064
H 7.8538 5.67453 4.52045
H 7.3952 4.42053 5.23382
O 1.34864 1.12065 4.8038
H 1.17183 0.33192 4.29116
H 2.24144 1.36815 4.56326
O 2.77573 7.55362 -5.35764
H 2.26932 8.31273 -5.06864
H 3.01025 7.75259 -6.26394
O 4.74559 0.516689 14.547
H 5.53967 0.409197 14.0236
H 4.48431 1.42617 14.4028
O -1.55206 0.709512 3.94954
H -1.65862 -0.0495391 4.52278
H -1.77388 1.45981 4.50088
O 2.60565 -2.50334 -10.2993
H 2.72455 -2.81799 -11.1953
H 2.0075 -1.76075 -10.3831
O 9.97291 9.28738 2.76246
H 9.24586 9.90515 2.83983
H -9.43789 9.84031 2.682
O -7.26142 -8.8944 15.666
H -7.74547 -9.71568 15.7522
H -7.89911 -8.27632 15.309
O 3.61976 -1.21241 10.8223
H 2.76909 -1.46955 10.4667
H 4.04989 -2.03995 11.0377
O 10.0221 -5.47525 1.47277
H -9.5315 -5.6016 2.17818
H -9.63117 -5.3415 0.690362
O -8.60337 -5.44978 3.93442
H -8.5001 -6.35164 4.23803
H -8.22162 -4.91658 4.63158
O -1.657 -5.41362 10.914
H -2.2546 -6.08135 11.2505
H -2.12525 -5.02216 10.1767
O 2.84963 6.35541 10.384
H 3.14117 6.9687 11.0585
H 2.80768 5.50972 10.8303
O -0.508415 9.47979 -2.98748
H -0.214031 9.03692 -3.78323
H 0.298926 9.70027 -2.52299
O -1.89512 1.62043 1.04517
H -2.52237 2.15807 0.5618
H -2.08043 1.80494 1.9658
O 0.187364 7.71811 11.5306