CHARMM-GUI lammps input

              1542  atoms
              1034  bonds
               549  angles
                62  dihedrals
                 4  impropers


                14  atom types
                12  bond types
                23  angle types
                20  dihedral types
                 3  improper types

    -10.0940      10.0940 xlo xhi
     -9.9900       9.9900 ylo yhi
    -20.7370      20.7370 zlo zhi

Masses

       1         1.008  # HA2
       2         1.008  # HB1
       3         1.008  # HC
       4         1.008  # HT
       5        12.011  # C
       6        12.011  # CC
       7        12.011  # CT1
       8        12.011  # CT2
       9        14.007  # NC2
      10        14.007  # NH3
      11        15.999  # OC
      12        15.999  # OT
      13        22.990  # SOD
      14        35.450  # CLA

PairIJ Coeffs

       1        1 0.03400000000000 2.38760856461611 0.03400000000000 2.38760856461611 # HA2 HA2
       1        2 0.02734958866235 2.36979059025330 0.02734958866235 2.36979059025330 # HA2 HB1
       1        3 0.03954743986657 1.39381104453056 0.03954743986657 1.39381104453056 # HA2 HC
       1        4 0.03954743986657 1.39381104453056 0.03954743986657 1.39381104453056 # HA2 HT
       1        5 0.06115553940568 2.97560171858873 0.06115553940568 2.97560171858873 # HA2 C
       1        6 0.04878524367060 2.97560171858873 0.04878524367060 2.97560171858873 # HA2 CC
       1        7 0.03298484500494 2.97560171858873 0.01843908891459 2.88651184677470 # HA2 CT1
       1        8 0.04363484845854 2.98451070577014 0.01843908891459 2.88651184677470 # HA2 CT2
       1        9 0.08246211251235 2.84196691086768 0.08246211251235 2.84196691086768 # HA2 NC2
       1       10 0.08246211251235 2.84196691086768 0.08246211251235 2.84196691086768 # HA2 NH3
       1       11 0.06387487769069 2.70833210314663 0.06387487769069 2.70833210314663 # HA2 OC
       1       12 0.07191244676688 2.76909139572380 0.07191244676688 2.76909139572380 # HA2 OT
       1       13 0.03993244295056 2.45063964892454 0.03993244295056 2.45063964892454 # HA2 SOD
       1       14 0.07141428428543 3.21614437248662 0.07141428428543 3.21614437248662 # HA2 CLA
       2        2 0.02200000000000 2.35197261589050 0.02200000000000 2.35197261589050 # HB1 HB1
       2        3 0.03181194744117 1.37599307016775 0.03181194744117 1.37599307016775 # HB1 HC
       2        4 0.03181194744117 1.37599307016775 0.03181194744117 1.37599307016775 # HB1 HT
       2        5 0.04919349550500 2.95778374422593 0.04919349550500 2.95778374422593 # HB1 C
       2        6 0.03924283374070 2.95778374422593 0.03924283374070 2.95778374422593 # HB1 CC
       2        7 0.02653299832284 2.95778374422593 0.01483239697419 2.86869387241189 # HB1 CT1
       2        8 0.03509985754957 2.96669273140733 0.01483239697419 2.86869387241189 # HB1 CT2
       2        9 0.06633249580711 2.82414893650488 0.06633249580711 2.82414893650488 # HB1 NC2
       2       10 0.06633249580711 2.82414893650488 0.06633249580711 2.82414893650488 # HB1 NH3
       2       11 0.05138093031466 2.69051412878382 0.05138093031466 2.69051412878382 # HB1 OC
       2       12 0.05784634819935 2.75127342136100 0.05784634819935 2.75127342136100 # HB1 OT
       2       13 0.03212164379355 2.43282167456173 0.03212164379355 2.43282167456173 # HB1 SOD
       2       14 0.05744562646538 3.19832639812382 0.05744562646538 3.19832639812382 # HB1 CLA
       3        3 0.04600000000000 0.40001352444501 0.04600000000000 0.40001352444501 # HC HC
       3        4 0.04600000000000 0.40001352444501 0.04600000000000 0.40001352444501 # HC HT
       3        5 0.07113367697511 1.98180419850318 0.07113367697511 1.98180419850318 # HC C
       3        6 0.05674504383644 1.98180419850318 0.05674504383644 1.98180419850318 # HC CC
       3        7 0.03836665218650 1.98180419850318 0.02144761058953 1.89271432668915 # HC CT1
       3        8 0.05075431016180 1.99071318568459 0.02144761058953 1.89271432668915 # HC CT2
       3        9 0.09591663046625 1.84816939078213 0.09591663046625 1.84816939078213 # HC NC2
       3       10 0.09591663046625 1.84816939078213 0.09591663046625 1.84816939078213 # HC NH3
       3       11 0.07429670248403 1.71453458306108 0.07429670248403 1.71453458306108 # HC OC
       3       12 0.08364568129916 1.77529387563825 0.08364568129916 1.77529387563825 # HC OT
       3       13 0.04644782018567 1.45684212883899 0.04644782018567 1.45684212883899 # HC SOD
       3       14 0.08306623862918 2.22234685240108 0.08306623862918 2.22234685240108 # HC CLA
       4        4 0.04600000000000 0.40001352444501 0.04600000000000 0.40001352444501 # HT HT
       4        5 0.07113367697511 1.98180419850318 0.07113367697511 1.98180419850318 # HT C
       4        6 0.05674504383644 1.98180419850318 0.05674504383644 1.98180419850318 # HT CC
       4        7 0.03836665218650 1.98180419850318 0.02144761058953 1.89271432668915 # HT CT1
       4        8 0.05075431016180 1.99071318568459 0.02144761058953 1.89271432668915 # HT CT2
       4        9 0.09591663046625 1.84816939078213 0.09591663046625 1.84816939078213 # HT NC2
       4       10 0.09591663046625 1.84816939078213 0.09591663046625 1.84816939078213 # HT NH3
       4       11 0.07429670248403 1.71453458306108 0.07429670248403 1.71453458306108 # HT OC
       4       12 0.08364568129916 1.77529387563825 0.08364568129916 1.77529387563825 # HT OT
       4       13 0.04644782018567 1.45684212883899 0.04644782018567 1.45684212883899 # HT SOD
       4       14 0.08306623862918 2.22234685240108 0.08306623862918 2.22234685240108 # HT CLA
       5        5 0.11000000000000 3.56359487256136 0.11000000000000 3.56359487256136 # C C
       5        6 0.08774964387392 3.56359487256136 0.08774964387392 3.56359487256136 # C CC
       5        7 0.05932958789677 3.56359487256136 0.03316624790355 3.47450500074732 # C CT1
       5        8 0.07848566748139 3.57250385974276 0.03316624790355 3.47450500074732 # C CT2
       5        9 0.14832396974191 3.42996006484031 0.14832396974191 3.42996006484031 # C NC2
       5       10 0.14832396974191 3.42996006484031 0.14832396974191 3.42996006484031 # C NH3
       5       11 0.11489125293076 3.29632525711926 0.11489125293076 3.29632525711926 # C OC
       5       12 0.12934836682386 3.35708454969643 0.12934836682386 3.35708454969643 # C OT
       5       13 0.07182617907142 3.03863280289716 0.07182617907142 3.03863280289716 # C SOD
       5       14 0.12845232578665 3.80413752645925 0.12845232578665 3.80413752645925 # C CLA
       6        6 0.07000000000000 3.56359487256136 0.07000000000000 3.56359487256136 # CC CC
       6        7 0.04732863826480 3.56359487256136 0.02645751311065 3.47450500074732 # CC CT1
       6        8 0.06260990336999 3.57250385974276 0.02645751311065 3.47450500074732 # CC CT2
       6        9 0.11832159566199 3.42996006484031 0.11832159566199 3.42996006484031 # CC NC2
       6       10 0.11832159566199 3.42996006484031 0.11832159566199 3.42996006484031 # CC NH3
       6       11 0.09165151389912 3.29632525711926 0.09165151389912 3.29632525711926 # CC OC
       6       12 0.10318430113152 3.35708454969643 0.10318430113152 3.35708454969643 # CC OT
       6       13 0.05729746940311 3.03863280289716 0.05729746940311 3.03863280289716 # CC SOD
       6       14 0.10246950765960 3.80413752645925 0.10246950765960 3.80413752645925 # CC CLA
       7        7 0.03200000000000 3.56359487256136 0.01000000000000 3.38541512893329 # CT1 CT1
       7        8 0.04233202097703 3.57250385974276 0.01000000000000 3.38541512893329 # CT1 CT2
       7        9 0.08000000000000 3.42996006484031 0.04472135955000 3.34087019302627 # CT1 NC2
       7       10 0.08000000000000 3.42996006484031 0.04472135955000 3.34087019302627 # CT1 NH3
       7       11 0.06196773353932 3.29632525711926 0.03464101615138 3.20723538530522 # CT1 OC
       7       12 0.06976532089799 3.35708454969643 0.03900000000000 3.26799467788239 # CT1 OT
       7       13 0.03874016004097 3.03863280289716 0.02165640782771 2.94954293108313 # CT1 SOD
       7       14 0.06928203230276 3.80413752645925 0.03872983346207 3.71504765464521 # CT1 CLA
       8        8 0.05600000000000 3.58141284692416 0.01000000000000 3.38541512893329 # CT2 CT2
       8        9 0.10583005244258 3.43886905202171 0.04472135955000 3.34087019302627 # CT2 NC2
       8       10 0.10583005244258 3.43886905202171 0.04472135955000 3.34087019302627 # CT2 NH3
       8       11 0.08197560612768 3.30523424430066 0.03464101615138 3.20723538530522 # CT2 OC
       8       12 0.09229084461635 3.36599353687783 0.03900000000000 3.26799467788239 # CT2 OT
       8       13 0.05124841460962 3.04754179007857 0.02165640782771 2.94954293108313 # CT2 SOD
       8       14 0.09165151389912 3.81304651364065 0.03872983346207 3.71504765464521 # CT2 CLA
       9        9 0.20000000000000 3.29632525711926 0.20000000000000 3.29632525711926 # NC2 NC2
       9       10 0.20000000000000 3.29632525711926 0.20000000000000 3.29632525711926 # NC2 NH3
       9       11 0.15491900000000 3.24019863787641 0.15491900000000 3.24019863787641 # NC2 OC
       9       12 0.17441330224498 3.22344974197538 0.17441330224498 3.22344974197538 # NC2 OT
       9       13 0.09685040010243 2.90499799517611 0.09685040010243 2.90499799517611 # NC2 SOD
       9       14 0.17320508075689 3.67050271873820 0.17320508075689 3.67050271873820 # NC2 CLA
      10       10 0.20000000000000 3.29632525711926 0.20000000000000 3.29632525711926 # NH3 NH3
      10       11 0.15491933384830 3.16269044939820 0.15491933384830 3.16269044939820 # NH3 OC
      10       12 0.17441330224498 3.22344974197538 0.17441330224498 3.22344974197538 # NH3 OT
      10       13 0.09685040010243 2.90499799517611 0.09685040010243 2.90499799517611 # NH3 SOD
      10       14 0.17320508075689 3.67050271873820 0.17320508075689 3.67050271873820 # NH3 CLA
      11       11 0.12000000000000 3.02905564167715 0.12000000000000 3.02905564167715 # OC OC
      11       12 0.13509996299037 3.08981493425432 0.13509996299037 3.08981493425432 # OC OT
      11       13 0.07502000000000 2.87760285959330 0.07502000000000 2.87760285959330 # OC SOD
      11       14 0.13416407864999 3.53686791101715 0.13416407864999 3.53686791101715 # OC CLA
      12       12 0.15210000000000 3.15057422683150 0.15210000000000 3.15057422683150 # OT OT
      12       13 0.08445999052806 2.83212248003223 0.08445999052806 2.83212248003223 # OT SOD
      12       14 0.15104635050209 3.59762720359432 0.15104635050209 3.59762720359432 # OT CLA
      13       13 0.04690000000000 2.51367073323297 0.04690000000000 2.51367073323297 # SOD SOD
      13       14 0.08390000000000 3.32394311738161 0.08390000000000 3.32394311738161 # SOD CLA
      14       14 0.15000000000000 4.04468018035714 0.15000000000000 4.04468018035714 # CLA CLA

Atoms

           1        1     10  -0.300    -2.9383389571    -1.2342661091    -0.5004181438 # PROA-1-ARG-N-NH3
           2        1      3   0.330    -3.8200655602    -0.8221109608    -0.8953884388 # PROA-1-ARG-HT1-HC
           3        1      3   0.330    -3.1137551848    -2.2098743057    -0.1939366744 # PROA-1-ARG-HT2-HC
           4        1      3   0.330    -2.2572715293    -1.1979260886    -1.2933443729 # PROA-1-ARG-HT3-HC
           5        1      7   0.210    -2.6294435592    -0.3117054804     0.5905793445 # PROA-1-ARG-CA-CT1
           6        1      2   0.100    -2.9878630691    -0.7445409767     1.5139150249 # PROA-1-ARG-HA-HB1
           7        1      8  -0.180    -1.1210061597    -0.0371497108     0.6873974279 # PROA-1-ARG-CB-CT2
           8        1      1   0.090    -0.5962299974    -0.9966569708     0.8873704568 # PROA-1-ARG-HB1-HA2
           9        1      1   0.090    -0.9550926710     0.6121119110     1.5816912659 # PROA-1-ARG-HB2-HA2
          10        1      8  -0.180    -0.5214362711     0.6721523912    -0.5373492712 # PROA-1-ARG-CG-CT2
          11        1      1   0.090    -1.0457284036     1.6408854902    -0.6960940721 # PROA-1-ARG-HG1-HA2
          12        1      1   0.090    -0.6489348082     0.0618868228    -1.4553078943 # PROA-1-ARG-HG2-HA2
          13        1      8   0.200     0.9661345770     0.9726538426    -0.3660167018 # PROA-1-ARG-CD-CT2
          14        1      1   0.090     1.1055534303     1.6391889349     0.5199793950 # PROA-1-ARG-HD1-HA2
          15        1      1   0.090     1.3396558391     1.4951303261    -1.2788877393 # PROA-1-ARG-HD2-HA2
          16        1      9  -0.700     1.7206152128    -0.2424361650    -0.1707828838 # PROA-1-ARG-NE-NC2
          17        1      3   0.440     1.2827797556    -1.1330100938    -0.2160378105 # PROA-1-ARG-HE-HC
          18        1      5   0.640     3.1143034843    -0.2572888070     0.0127093531 # PROA-1-ARG-CZ-C
          19        1      9  -0.800     3.7995398115    -1.4530655717     0.1976366493 # PROA-1-ARG-NH1-NC2
          20        1      3   0.460     3.3718243737    -2.2875241250    -0.1599878518 # PROA-1-ARG-HH11-HC
          21        1      3   0.460     4.7944352042    -1.4105092654     0.1960167668 # PROA-1-ARG-HH12-HC
          22        1      9  -0.800     3.8250376520     0.9386031762     0.0104056141 # PROA-1-ARG-NH2-NC2
          23        1      3   0.460     3.3533174723     1.7832184763    -0.1829072194 # PROA-1-ARG-HH21-HC
          24        1      3   0.460     4.8211693213     0.8423756965    -0.0816857927 # PROA-1-ARG-HH22-HC
          25        1      6   0.340    -3.4259552318     0.9620976481     0.3721903679 # PROA-1-ARG-C-CC
          26        1     11  -0.670    -4.1749148380     1.0253869016    -0.6390731876 # PROA-1-ARG-OT1-OC
          27        1     11  -0.670    -3.2977143834     1.8914787128     1.2132641586 # PROA-1-ARG-OT2-OC
          28        1     12  -0.834     2.1437415503    -0.0694915131   -14.1098122143 # SOLV-1-TIP3-OH2-OT
          29        1      4   0.417     1.9599186158     0.8972834822   -14.0992705139 # SOLV-1-TIP3-H1-HT
          30        1      4   0.417     1.4535627038    -0.3540795534   -14.7361227404 # SOLV-1-TIP3-H2-HT
          31        2     12  -0.834     0.8183363411    -0.5695322933   -10.2166097330 # SOLV-2-TIP3-OH2-OT
          32        2      4   0.417     1.1069426852    -1.0928790196    -9.4413840359 # SOLV-2-TIP3-H1-HT
          33        2      4   0.417     0.3781785463    -1.2731353797   -10.7392318750 # SOLV-2-TIP3-H2-HT
          34        3     12  -0.834    -7.2005798271    -1.0305018537    -8.8999227187 # SOLV-3-TIP3-OH2-OT
          35        3      4   0.417    -7.0539463853    -1.8349787870    -8.3631666622 # SOLV-3-TIP3-H1-HT
          36        3      4   0.417    -6.3336849018    -0.9418764563    -9.3351821313 # SOLV-3-TIP3-H2-HT
          37        4     12  -0.834     4.7677012636     2.2126981133   -12.0140450586 # SOLV-4-TIP3-OH2-OT
          38        4      4   0.417     4.3173497822     1.4917856049   -11.5356188356 # SOLV-4-TIP3-H1-HT
          39        4      4   0.417     4.8639958466     2.8942570195   -11.3209610977 # SOLV-4-TIP3-H2-HT
          40        5     12  -0.834    -5.8021902303     3.1500338928   -10.6917107595 # SOLV-5-TIP3-OH2-OT
          41        5      4   0.417    -6.0178206102     2.2561435783   -11.0449867918 # SOLV-5-TIP3-H1-HT
          42        5      4   0.417    -4.8244467489     3.0869816665   -10.6660241087 # SOLV-5-TIP3-H2-HT
          43        6     12  -0.834    -8.7637331019    -3.1868314837   -15.2632833976 # SOLV-6-TIP3-OH2-OT
          44        6      4   0.417    -9.0183386679    -2.2702668697   -15.4090146431 # SOLV-6-TIP3-H1-HT
          45        6      4   0.417    -9.6167107744    -3.5729123307   -14.9766981068 # SOLV-6-TIP3-H2-HT
          46        7     12  -0.834    -8.7806013937    -0.8668310552   -12.4874605435 # SOLV-7-TIP3-OH2-OT
          47        7      4   0.417    -8.3581165676    -1.7429158315   -12.3736701102 # SOLV-7-TIP3-H1-HT
          48        7      4   0.417    -8.0187334575    -0.3091449472   -12.6931578412 # SOLV-7-TIP3-H2-HT
          49        8     12  -0.834     2.0230710425     7.1301254122   -11.6483369083 # SOLV-8-TIP3-OH2-OT
          50        8      4   0.417     2.1500113029     6.4305356533   -12.3142801687 # SOLV-8-TIP3-H1-HT
          51        8      4   0.417     1.6663864654     6.6448623794   -10.8954096496 # SOLV-8-TIP3-H2-HT
          52        9     12  -0.834    -0.7488721305     1.7737924934   -10.2202426163 # SOLV-9-TIP3-OH2-OT
          53        9      4   0.417    -0.3104480754     0.9369609677   -10.4759129732 # SOLV-9-TIP3-H1-HT
          54        9      4   0.417    -0.0305954437     2.1511319285    -9.6773578211 # SOLV-9-TIP3-H2-HT
          55       10     12  -0.834     8.1853871168    -6.9366233672    -9.2384874206 # SOLV-10-TIP3-OH2-OT
          56       10      4   0.417     8.1866358823    -6.2626576568    -8.5210421643 # SOLV-10-TIP3-H1-HT
          57       10      4   0.417     8.5472461905    -6.4333139474    -9.9804049294 # SOLV-10-TIP3-H2-HT
          58       11     12  -0.834     2.4483571939    -3.9490147393    -9.9815085797 # SOLV-11-TIP3-OH2-OT
          59       11      4   0.417     2.8170544807    -4.8431301654    -9.8429394782 # SOLV-11-TIP3-H1-HT
          60       11      4   0.417     2.2143205988    -3.9893075098   -10.9296001639 # SOLV-11-TIP3-H2-HT
          61       12     12  -0.834    -3.9264226127    -5.6943982006   -12.5875498870 # SOLV-12-TIP3-OH2-OT
          62       12      4   0.417    -3.9154117303    -4.8140269151   -13.0140474887 # SOLV-12-TIP3-H1-HT
          63       12      4   0.417    -4.3697048656    -6.2069306344   -13.2987473286 # SOLV-12-TIP3-H2-HT
          64       13     12  -0.834     3.5296419102    -5.4788098044   -14.3525796609 # SOLV-13-TIP3-OH2-OT
          65       13      4   0.417     4.0913296938    -5.6303793915   -13.5532205847 # SOLV-13-TIP3-H1-HT
          66       13      4   0.417     4.1745186412    -5.0198074464   -14.9265138437 # SOLV-13-TIP3-H2-HT
          67       14     12  -0.834    -7.5301944744    -3.2504945351   -11.8739978866 # SOLV-14-TIP3-OH2-OT
          68       14      4   0.417    -6.8150927555    -3.8020972515   -11.5044216185 # SOLV-14-TIP3-H1-HT
          69       14      4   0.417    -7.6782679321    -3.7156139919   -12.7191337738 # SOLV-14-TIP3-H2-HT
          70       15     12  -0.834    -2.9155698379    -1.8023096244   -11.9972698398 # SOLV-15-TIP3-OH2-OT
          71       15      4   0.417    -1.9997396404    -2.0899378179   -11.7975280821 # SOLV-15-TIP3-H1-HT
          72       15      4   0.417    -3.1923601511    -2.4799896428   -12.6518242127 # SOLV-15-TIP3-H2-HT
          73       16     12  -0.834     8.1235433356    -5.2142865979    -7.1365032562 # SOLV-16-TIP3-OH2-OT
          74       16      4   0.417     7.3982967979    -4.5522960181    -7.1697837711 # SOLV-16-TIP3-H1-HT
          75       16      4   0.417     8.5798123150    -4.9854561453    -6.3236157421 # SOLV-16-TIP3-H2-HT
          76       17     12  -0.834    -5.4767917255    -6.8030030160    -8.4695285020 # SOLV-17-TIP3-OH2-OT
          77       17      4   0.417    -5.7747896831    -6.3611256203    -9.2871389648 # SOLV-17-TIP3-H1-HT
          78       17      4   0.417    -6.2512131850    -6.6218251252    -7.8899755832 # SOLV-17-TIP3-H2-HT
          79       18     12  -0.834     1.4750082356     2.4581157952   -14.7099211588 # SOLV-18-TIP3-OH2-OT
          80       18      4   0.417     1.3645421926     2.5537537472   -15.6753992334 # SOLV-18-TIP3-H1-HT
          81       18      4   0.417     1.0328578396     3.2713863118   -14.3930895220 # SOLV-18-TIP3-H2-HT
          82       19     12  -0.834    -2.9647376193     0.9509907381    -8.7393591326 # SOLV-19-TIP3-OH2-OT
          83       19      4   0.417    -3.4411499354     1.7216894233    -8.3605159384 # SOLV-19-TIP3-H1-HT
          84       19      4   0.417    -2.2769563515     1.3913204462    -9.2813455859 # SOLV-19-TIP3-H2-HT
          85       20     12  -0.834     4.9177033121    -5.7274766052   -12.0909151726 # SOLV-20-TIP3-OH2-OT
          86       20      4   0.417     4.9603314243    -6.5816180486   -11.6195042281 # SOLV-20-TIP3-H1-HT
          87       20      4   0.417     5.2684523300    -5.1292671910   -11.4008928820 # SOLV-20-TIP3-H2-HT
          88       21     12  -0.834    -5.7765902470    -5.0312096845   -10.6209885561 # SOLV-21-TIP3-OH2-OT
          89       21      4   0.417    -5.1891011219    -4.4911250478   -10.0513640617 # SOLV-21-TIP3-H1-HT
          90       21      4   0.417    -5.1354749145    -5.3795714953   -11.2807310075 # SOLV-21-TIP3-H2-HT
          91       22     12  -0.834    -4.3831013240     3.0562412556    -7.5918204850 # SOLV-22-TIP3-OH2-OT
          92       22      4   0.417    -4.3848728645     4.0312245541    -7.6750825030 # SOLV-22-TIP3-H1-HT
          93       22      4   0.417    -5.3280217758     2.9081489229    -7.4081062098 # SOLV-22-TIP3-H2-HT
          94       23     12  -0.834    -8.6385581001     2.5363770556   -16.4029057849 # SOLV-23-TIP3-OH2-OT
          95       23      4   0.417    -8.9178614224     2.9493257283   -17.2470866648 # SOLV-23-TIP3-H1-HT
          96       23      4   0.417    -8.4213550193     3.3176365291   -15.8607755579 # SOLV-23-TIP3-H2-HT
          97       24     12  -0.834     4.9416777857     4.2093856157   -10.0827163141 # SOLV-24-TIP3-OH2-OT
          98       24      4   0.417     4.0188935697     4.3351731181    -9.7615095854 # SOLV-24-TIP3-H1-HT
          99       24      4   0.417     5.2034301962     5.1315496095   -10.2673367337 # SOLV-24-TIP3-H2-HT
         100       25     12  -0.834     5.4245171352    -7.2549034556    -8.2311494261 # SOLV-25-TIP3-OH2-OT
         101       25      4   0.417     4.6292335969    -7.0483426100    -8.7701041585 # SOLV-25-TIP3-H1-HT
         102       25      4   0.417     6.1181747088    -7.2702608904    -8.9150944606 # SOLV-25-TIP3-H2-HT
         103       26     12  -0.834    -1.9630959042    -8.8195525717   -11.4415729059 # SOLV-26-TIP3-OH2-OT
         104       26      4   0.417    -1.7883231195    -9.7646961453   -11.2721173436 # SOLV-26-TIP3-H1-HT
         105       26      4   0.417    -2.7532254620    -8.6915207829   -10.8732146380 # SOLV-26-TIP3-H2-HT
         106       27     12  -0.834     3.0681038216     5.7759804026   -13.9269163574 # SOLV-27-TIP3-OH2-OT
         107       27      4   0.417     3.5195695053     4.9020890647   -14.0436850865 # SOLV-27-TIP3-H1-HT
         108       27      4   0.417     3.8598750172     6.3567608557   -13.9530108815 # SOLV-27-TIP3-H2-HT
         109       28     12  -0.834     4.4639581836     3.5338605627   -14.3992260002 # SOLV-28-TIP3-OH2-OT
         110       28      4   0.417     4.2400161884     2.8468322331   -15.0362861681 # SOLV-28-TIP3-H1-HT
         111       28      4   0.417     4.6177253432     3.0089500976   -13.5826969687 # SOLV-28-TIP3-H2-HT
         112       29     12  -0.834     5.9986192655     2.2118671450    -6.3469344382 # SOLV-29-TIP3-OH2-OT
         113       29      4   0.417     5.9143333467     1.6541368612    -7.1507872096 # SOLV-29-TIP3-H1-HT
         114       29      4   0.417     6.0369541310     3.1038484975    -6.7600723266 # SOLV-29-TIP3-H2-HT
         115       30     12  -0.834     0.6773607974    -0.7541483292   -16.3726868997 # SOLV-30-TIP3-OH2-OT
         116       30      4   0.417    -0.0440408010    -0.1336516912   -16.6178295580 # SOLV-30-TIP3-H1-HT
         117       30      4   0.417     1.2045709358    -0.7688753395   -17.1902257136 # SOLV-30-TIP3-H2-HT
         118       31     12  -0.834     0.6372042206    -2.4430528675   -19.5965027547 # SOLV-31-TIP3-OH2-OT
         119       31      4   0.417     1.3300950122    -1.9033578785   -19.1774895523 # SOLV-31-TIP3-H1-HT
         120       31      4   0.417     1.1729780257    -3.1521222510   -19.9808170122 # SOLV-31-TIP3-H2-HT
         121       32     12  -0.834     7.5212878180    -1.2406328530    -8.3263748613 # SOLV-32-TIP3-OH2-OT
         122       32      4   0.417     6.9132259049    -0.4889160029    -8.5035296189 # SOLV-32-TIP3-H1-HT
         123       32      4   0.417     7.9127061593    -1.3908789905    -9.2000932141 # SOLV-32-TIP3-H2-HT
         124       33     12  -0.834     4.1454786660    -0.3819980260   -15.9199455159 # SOLV-33-TIP3-OH2-OT
         125       33      4   0.417     3.4508750377    -0.2394073106   -15.2358051938 # SOLV-33-TIP3-H1-HT
         126       33      4   0.417     4.7871408413    -0.8927872760   -15.3842083374 # SOLV-33-TIP3-H2-HT
         127       34     12  -0.834     3.7039236248    -2.5227740035    -6.3397669945 # SOLV-34-TIP3-OH2-OT
         128       34      4   0.417     3.6375400072    -1.7860801226    -5.6906277351 # SOLV-34-TIP3-H1-HT
         129       34      4   0.417     3.0296488856    -2.2528234082    -7.0036179242 # SOLV-34-TIP3-H2-HT
         130       35     12  -0.834    -4.3759819165    -0.0791217717   -13.7466758012 # SOLV-35-TIP3-OH2-OT
         131       35      4   0.417    -4.5704653565    -0.4822145334   -14.6220927509 # SOLV-35-TIP3-H1-HT
         132       35      4   0.417    -3.8192624533    -0.7588067660   -13.3215777599 # SOLV-35-TIP3-H2-HT
         133       36     12  -0.834    -3.0137046106     3.2287944386   -11.0907047382 # SOLV-36-TIP3-OH2-OT
         134       36      4   0.417    -3.0590168649     3.3675472305   -12.0613100091 # SOLV-36-TIP3-H1-HT
         135       36      4   0.417    -2.1683254190     2.7414117895   -10.9920507257 # SOLV-36-TIP3-H2-HT
         136       37     12  -0.834    -4.5029195898    -0.9471119553    -9.9467207793 # SOLV-37-TIP3-OH2-OT
         137       37      4   0.417    -3.8701604283    -1.2293753680   -10.6525729460 # SOLV-37-TIP3-H1-HT
         138       37      4   0.417    -3.9446300915    -0.2899153512    -9.4659910874 # SOLV-37-TIP3-H2-HT
         139       38     12  -0.834     2.5691841463     4.5589458525    -8.8274042482 # SOLV-38-TIP3-OH2-OT
         140       38      4   0.417     2.5173363446     4.8730038267    -7.9111602573 # SOLV-38-TIP3-H1-HT
         141       38      4   0.417     2.0741487068     3.7153016105    -8.7588676241 # SOLV-38-TIP3-H2-HT
         142       39     12  -0.834    -3.0050950042     3.1630522520    -5.2067414630 # SOLV-39-TIP3-OH2-OT
         143       39      4   0.417    -3.6639323045     3.7918727173    -4.8363381823 # SOLV-39-TIP3-H1-HT
         144       39      4   0.417    -3.4538214325     2.9298303469    -6.0473270929 # SOLV-39-TIP3-H2-HT
         145       40     12  -0.834     2.8450040000    -1.2041791294   -18.1877526611 # SOLV-40-TIP3-OH2-OT
         146       40      4   0.417     3.3036865948    -0.8484136054   -17.3926056611 # SOLV-40-TIP3-H1-HT
         147       40      4   0.417     3.4274478900    -0.8340130765   -18.8883254203 # SOLV-40-TIP3-H2-HT
         148       41     12  -0.834    -5.6326090940    -0.4323410457    -5.7029819119 # SOLV-41-TIP3-OH2-OT
         149       41      4   0.417    -5.8898188135     0.3972628940    -5.2621593274 # SOLV-41-TIP3-H1-HT
         150       41      4   0.417    -6.4925021203    -0.7463326334    -6.0324824798 # SOLV-41-TIP3-H2-HT
         151       42     12  -0.834     0.4058189112     4.9498374720   -14.2755854031 # SOLV-42-TIP3-OH2-OT
         152       42      4   0.417     1.2561535168     5.4224848497   -14.2337339336 # SOLV-42-TIP3-H1-HT
         153       42      4   0.417     0.0843397041     5.1682677838   -15.1730495867 # SOLV-42-TIP3-H2-HT
         154       43     12  -0.834    -4.9068027540     5.0627892685    -4.6037265442 # SOLV-43-TIP3-OH2-OT
         155       43      4   0.417    -4.8377089675     5.4246702745    -5.5124522696 # SOLV-43-TIP3-H1-HT
         156       43      4   0.417    -5.8569604614     5.1882074656    -4.4089237146 # SOLV-43-TIP3-H2-HT
         157       44     12  -0.834     6.5202318729    -8.7215600891   -18.1455580019 # SOLV-44-TIP3-OH2-OT
         158       44      4   0.417     5.7859417049    -8.4046396324   -17.5922635025 # SOLV-44-TIP3-H1-HT
         159       44      4   0.417     6.9759716752    -7.9218392967   -18.4547700028 # SOLV-44-TIP3-H2-HT
         160       45     12  -0.834    -5.0749292432    -0.8626597324   -16.3242562271 # SOLV-45-TIP3-OH2-OT
         161       45      4   0.417    -5.6702396483    -0.1679342192   -16.6911575560 # SOLV-45-TIP3-H1-HT
         162       45      4   0.417    -5.6154337150    -1.6531965836   -16.4378473852 # SOLV-45-TIP3-H2-HT
         163       46     12  -0.834     7.4695130454     4.9357350104   -19.7315470977 # SOLV-46-TIP3-OH2-OT
         164       46      4   0.417     8.0930258134     5.6896737323   -19.6051026699 # SOLV-46-TIP3-H1-HT
         165       46      4   0.417     8.0425719717     4.2922805599   -20.1659496641 # SOLV-46-TIP3-H2-HT
         166       47     12  -0.834    -8.2149145730     1.1451820145    -7.2661378076 # SOLV-47-TIP3-OH2-OT
         167       47      4   0.417    -9.1868114364     1.2096670629    -7.3725982271 # SOLV-47-TIP3-H1-HT
         168       47      4   0.417    -7.9915930621     0.3943849565    -7.8376290909 # SOLV-47-TIP3-H2-HT
         169       48     12  -0.834    -8.4378313299     4.1480586867   -10.2063263280 # SOLV-48-TIP3-OH2-OT
         170       48      4   0.417    -7.6004223748     3.6678304682   -10.3586836839 # SOLV-48-TIP3-H1-HT
         171       48      4   0.417    -8.2583347276     4.5347299055    -9.3230344178 # SOLV-48-TIP3-H2-HT
         172       49     12  -0.834     8.5748819204     4.9919837374    -4.3389475079 # SOLV-49-TIP3-OH2-OT
         173       49      4   0.417     8.5137277267     4.0131955784    -4.3549744865 # SOLV-49-TIP3-H1-HT
         174       49      4   0.417     8.7759054017     5.1821605565    -3.4195009424 # SOLV-49-TIP3-H2-HT
         175       50     12  -0.834    -0.6539060701     4.4403279583    -5.7893810684 # SOLV-50-TIP3-OH2-OT