1542
Atoms. Timestep: 2089
N -3.691 -0.868605 -1.79391
H -4.65742 -1.03149 -2.16326
H -3.26911 -1.80843 -1.62045
H -3.15231 -0.366318 -2.54103
C -3.76256 -0.0325927 -0.56091
H -4.31917 -0.613147 0.161993
C -2.33928 0.220542 0.0335713
H -1.76827 -0.732817 0.0531083
H -2.49134 0.526599 1.09613
C -1.48773 1.32484 -0.632678
H -2.05912 2.281 -0.580023
H -1.32161 1.11013 -1.70724
C -0.142475 1.59759 0.0645313
H -0.283359 1.65538 1.16917
H 0.278955 2.56076 -0.306249
N 0.809895 0.497514 -0.291756
H 0.569765 -0.113106 -1.05044
C 2.0611 0.45436 0.148206
N 2.95387 -0.327828 -0.420493
H 2.71645 -0.834087 -1.25989
H 3.9157 -0.090344 -0.25846
N 2.50319 1.17765 1.15373
H 1.85588 1.6765 1.72137
H 3.36663 0.854009 1.55622
C -4.56655 1.27843 -0.754839
O -5.20783 1.46607 -1.82178
O -4.59302 2.13057 0.171065
O 2.03868 0.686934 -14.5755
H 1.41892 1.15572 -13.9848
H 1.42233 0.15359 -15.1195
O 1.33237 -0.687665 -10.3365
H 1.4952 -1.35444 -9.63698
H 0.759272 -1.19413 -10.9508
O -6.59583 -1.01385 -9.2615
H -6.63329 -1.91607 -8.8667
H -5.7318 -1.01408 -9.71679
O 4.99559 1.9663 -12.7465
H 4.60821 1.18002 -12.3151
H 5.12333 2.55427 -11.9764
O -6.02474 3.08883 -11.5406
H -6.00094 2.18751 -11.9343
H -5.0609 3.27147 -11.5135
O -8.42037 -3.48043 -16.9206
H -8.26035 -2.83313 -17.6409
H -9.37696 -3.30737 -16.7542
O -8.12413 -0.377683 -12.5814
H -7.8253 -1.30802 -12.567
H -7.28335 0.0839828 -12.7607
O 2.03343 6.63352 -12.393
H 2.41764 6.15758 -13.1518
H 1.11111 6.34984 -12.4797
O -1.19491 2.33637 -11.2044
H -0.724822 2.25716 -12.0641
H -0.434569 2.255 -10.589
O 9.6456 -6.39063 -8.30078
H 9.16591 -5.72369 -7.7651
H 9.46287 -6.0514 -9.20237
O 2.72795 -4.2231 -10.6121
H 2.68231 -5.12791 -10.2319
H 2.23545 -4.33624 -11.4534
O -3.59655 -5.57806 -12.6896
H -3.80541 -4.79767 -13.2451
H -3.96143 -6.30383 -13.2435
O 3.93594 -5.41833 -14.1502
H 4.62396 -5.60728 -13.4714
H 4.48927 -5.00631 -14.8442
O -7.21511 -2.96156 -12.1562
H -6.53931 -3.47166 -11.6702
H -7.19211 -3.40601 -13.0314
O -2.69528 -1.54935 -12.6776
H -1.78348 -1.88333 -12.5346
H -3.14558 -2.31689 -13.0891
O 8.31264 -4.51827 -6.82251
H 7.4676 -4.19232 -7.20189
H 8.71916 -3.67437 -6.5579
O -5.47316 -5.99333 -8.32994
H -5.61939 -5.34584 -9.04268
H -6.37118 -6.02261 -7.92987
O 0.153858 2.54056 -13.6074
H 0.114498 2.51233 -14.5861
H 0.260983 3.51011 -13.51
O -2.96163 1.56016 -9.13035
H -3.51718 2.3235 -8.86491
H -2.40335 1.94977 -9.83547
O 5.84223 -5.94544 -12.2804
H 5.54654 -6.71339 -11.7452
H 6.04062 -5.28548 -11.5804
O -5.30971 -4.56321 -10.7833
H -4.7091 -4.02808 -10.2188
H -4.651 -5.00432 -11.3666
O -4.57541 3.64264 -8.01199
H -4.74824 4.60069 -8.11734
H -5.4382 3.34338 -7.66702
O -7.80848 2.33361 -16.3731
H -8.28983 2.48852 -17.2091
H -8.06007 3.11814 -15.8542
O 5.20977 3.50384 -10.4807
H 4.33253 3.60025 -10.0343
H 5.55264 4.41429 -10.3947
O 4.87757 -7.48751 -8.50103
H 3.98159 -7.16179 -8.72653
H 5.12924 -7.82465 -9.38675
O -1.86093 -9.14206 -10.8926
H -2.38668 -9.95746 -10.7435
H -2.46752 -8.50544 -10.4513
O 3.01993 5.62658 -14.7958
H 3.23073 4.66563 -14.9104
H 3.91997 5.98042 -14.6217
O 3.6053 2.99701 -14.8454
H 2.99167 2.24326 -14.9002
H 4.22268 2.65895 -14.1601
O 5.59209 2.12174 -6.74976
H 5.444 1.6083 -7.57278
H 6.08039 2.88507 -7.13181
O 0.60885 -0.76113 -16.4604
H -0.150391 -0.238065 -16.8032
H 1.18406 -0.801414 -17.2448
O 0.52663 -2.40903 -19.6422
H 1.1926 -1.8798 -19.1736
H 1.10873 -3.09171 -20.0286
O 7.10979 -0.634742 -7.8743
H 6.43185 -0.107926 -8.3521
H 7.90487 -0.130937 -8.15868
O 4.11738 -0.204676 -16.1236
H 3.46928 0.145921 -15.4739
H 4.68324 -0.744646 -15.5328
O 3.71249 -2.71573 -6.44901
H 3.67108 -1.84983 -5.98124
H 3.06614 -2.56832 -7.17855
O -3.69525 0.239931 -14.5496
H -3.80089 -0.264711 -15.3861
H -3.18298 -0.384925 -13.9964
O -3.41705 3.79624 -11.8633
H -3.49786 3.91758 -12.8331
H -2.5843 3.28246 -11.7776
O -4.04078 -0.669403 -10.443
H -3.4273 -0.867551 -11.188
H -3.61212 0.107632 -10.0199
O 2.92602 3.6187 -9.06462
H 2.65337 3.96248 -8.19347
H 2.1599 3.05756 -9.29963
O -3.10869 4.19917 -5.72698
H -3.84154 4.7486 -5.37165
H -3.52711 3.8712 -6.54916
O 2.7774 -1.27552 -18.2572
H 3.25866 -0.871198 -17.4989
H 3.37404 -1.00169 -18.9864
O -5.42171 -0.625824 -5.31903
H -5.3938 0.251355 -4.88408
H -6.10014 -0.424785 -5.99307
O 0.291234 5.23046 -14.1182
H 1.14253 5.37595 -14.5706
H -0.340395 5.36742 -14.8555
O -5.36199 5.68413 -5.05747
H -5.27537 6.07538 -5.95484
H -6.33211 5.5613 -5.00457
O 7.36811 -8.12301 -18.3636
H 7.34284 -7.66022 -17.5053
H 8.20378 -7.77141 -18.743
O -4.1493 -0.939687 -17.0071
H -5.09238 -0.730241 -17.19
H -4.13273 -1.91574 -16.9426
O 7.14895 5.76134 -20.478
H 7.93602 6.20956 -20.105
H 7.55589 5.30487 20.2345
O -7.38986 0.330569 -7.04237
H -7.99457 -0.363305 -6.70458
H -7.13487 -0.0538068 -7.90976
O -8.63368 3.44998 -10.8087
H -7.73375 3.18574 -11.1001
H -8.44507 3.76811 -9.90193
O 8.17809 4.75668 -4.3816
H 7.83808 3.84356 -4.49117
H 8.42438 4.72169 -3.43271
O -0.379618 4.42827 -5.59927
H -0.242586 5.01531 -4.82391
H -1.3585 4.34387 -5.5877
O 0.724099 9.25583 -15.969
H 0.259608 9.17221 -16.8263
H 0.328588 -9.91917 -15.5998
O -7.47845 6.8901 -13.9936
H -7.04111 6.51651 -13.2003
H -7.86399 6.0907 -14.4134
O 2.52471 8.24365 -19.4033
H 3.09032 7.63577 -19.9198
H 2.53019 7.81411 -18.5252
O 2.78381 7.62678 -16.7096
H 2.06242 8.17666 -16.3255
H 2.79975 6.87448 -16.0857
O 5.48132 -3.8232 -4.61756
H 4.85452 -3.40674 -5.23946
H 5.5764 -4.70558 -5.03317
O -6.94679 2.98577 -6.58794
H -6.47212 2.75329 -5.758
H -7.2265 2.07472 -6.84242
O -3.94338 -7.79648 -9.72233
H -4.63298 -8.18603 -10.302
H -4.5069 -7.19583 -9.19786
O -0.313778 -8.71192 -5.47606
H -0.273831 -9.64515 -5.19668
H -1.13532 -8.40639 -5.05884
O 2.74722 -5.25413 -5.56038
H 2.45232 -4.98928 -4.66094
H 2.97247 -4.38438 -5.9384
O 4.75477 -0.334095 -19.9571
H 5.70689 -0.570338 -19.9443
H 4.79825 0.504225 -19.4513
O 0.679911 -7.10384 -18.8191
H -0.163249 -7.18123 -18.3429
H 0.39685 -7.26067 -19.7419
O -3.66779 -3.07804 -9.16542
H -3.66356 -2.83078 -8.21653
H -3.77394 -2.19763 -9.57985
O -4.33559 -3.36611 -14.1036
H -5.29549 -3.52436 -14.2339
H -4.03939 -3.40953 -15.0398
O 0.862715 -3.38278 -15.6236
H 0.702351 -2.44148 -15.8572
H 1.61295 -3.59481 -16.2205
O -0.165424 -1.13094 -2.65201
H -0.464441 -2.05589 -2.79235
H 0.79331 -1.25198 -2.82101
O 1.69391 -4.18266 -13.1544
H 1.32422 -3.88141 -14.0127
H 2.49112 -4.65001 -13.4851
O -7.08686 -3.20311 -7.67293
H -7.63984 -2.76358 -6.99817
H -7.40301 -4.12481 -7.5884
O -2.66346 -6.90104 -19.7106
H -2.39569 -7.11572 -18.7968
H -2.98654 -5.97961 -19.5868
O -9.81022 -6.16221 -12.8247
H -8.98853 -6.21445 -12.2787
H -9.42307 -6.04435 -13.7029
O -7.24284 -5.66969 -18.1249
H -6.72428 -5.12929 -18.7549
H -7.75763 -4.95554 -17.691
O 1.90328 -2.69222 -8.51212
H 2.25178 -3.2501 -9.24429
H 1.15702 -3.24927 -8.19658
O -0.93442 -6.27766 -13.1243
H -1.80325 -6.03785 -12.7348
H -0.412457 -6.46821 -12.3198
O -6.95847 -4.12115 -14.6429
H -7.45076 -3.75148 -15.4102
H -7.15153 -5.07043 -14.7783
O -3.47626 -3.63988 -16.6574
H -2.6817 -4.11037 -16.3261
H -3.50864 -3.97722 -17.5777
O 2.33215 -6.65511 -9.36369
H 1.81253 -6.75034 -8.5361
H 1.7044 -7.0484 -10.0098
O -3.49748 -4.33057 -19.3047
H -4.43493 -4.11883 -19.5126
H -3.0218 -3.5924 -19.7476
O -6.02901 1.87283 -4.26569
H -5.62451 1.85054 -3.36332
H -6.97068 1.73143 -4.03242
O -0.155792 -2.49445 -11.9132
H 0.489992 -3.06686 -12.374
H -0.54149 -3.13667 -11.2717
O -4.49699 -7.65613 -14.2418
H -5.34312 -8.11909 -14.0627
H -3.83309 -8.33691 -14
O -1.25287 -4.10764 -10.0625
H -2.15487 -3.87217 -9.77059
H -0.817123 -4.28491 -9.20589
O -1.37104 0.89806 -17.4258
H -1.80088 0.670644 -18.276
H -2.11887 1.33469 -16.9673
O 5.43435 1.0299 -9.2521
H 5.48401 1.90002 -9.7022
H 4.87734 0.551012 -9.90632
O 3.03471 -6.6033 -17.6251
H 2.20707 -6.80029 -18.1282
H 2.98183 -5.62698 -17.5636
O 0.339051 1.83592 -6.59501
H 1.2518 1.74558 -6.25333
H 0.0954275 2.71492 -6.24072
O 3.10403 -3.8606 -17.1639
H 4.03048 -3.8857 -16.8637
H 3.08484 -3.05176 -17.7121
O -5.54595 0.613215 -12.5531
H -4.95317 0.529591 -13.3322
H -5.09872 0.0441765 -11.9033
O 0.124056 2.88404 -16.3388
H -0.482387 3.65508 -16.3634
H -0.416876 2.18455 -16.7633
O -8.67683 -1.79999 -5.86886
H -8.61207 -1.68611 -4.89579
H -9.63631 -1.97087 -5.9658
O -2.26045 0.176091 -3.97217
H -2.20386 0.198558 -4.95156
H -1.3832 -0.183039 -3.72622
O 2.18476 4.55402 -6.54972
H 1.25279 4.6064 -6.24976
H 2.40774 5.50827 -6.61411
O 6.75714 -3.00915 -18.1188
H 6.23467 -3.46076 -18.8161
H 6.99769 -2.17826 -18.5874
O 7.4345 2.09544 -4.70831
H 6.77836 2.05247 -5.43739
H 8.23207 1.70397 -5.12494
O 6.07309 5.60905 -17.9252
H 5.32343 5.02154 -18.1008
H 6.50849 5.60745 -18.8011
O 3.92861 -0.110287 -11.2195
H 2.97787 -0.238901 -11.0219
H 4.18035 -1.00192 -11.5414
O -4.40995 4.3058 -14.438
H -4.46217 5.24919 -14.71
H -5.33057 4.03519 -14.5531
O -7.86068 -1.76056 -19.0181
H -7.44697 -0.993071 -18.5682
H -8.55202 -1.30422 -19.5505
O -3.15361 2.46814 -16.0233
H -3.46186 3.20556 -15.4555
H -3.39701 1.7091 -15.4489
O -2.0934 6.31929 -8.22797
H -1.38258 6.99012 -8.15636
H -1.72868 5.61558 -7.67619
O -4.95425 6.89834 -15.2027
H -5.89533 7.06789 -15.0039
H -4.54512 7.53614 -14.5692
O 0.803585 1.84707 -9.37456
H 0.605183 1.69102 -8.43102
H 1.03375 0.945183 -9.69209
O 4.04612 3.91707 -19.2808
H 4.4059 3.11953 -18.8294
H 3.08709 3.80208 -19.0893
O 9.2138 7.02444 -19.0533
H 10.0257 7.52253 -19.2877
H 8.6272 7.7536 -18.7839
O -8.00351 -5.82805 -7.32319
H -8.83914 -6.04351 -7.78789
H -8.08942 -6.43869 -6.55846
O 5.03293 1.64322 -18.043
H 4.65735 1.15294 -17.2833
H 5.98218 1.6307 -17.7916
O -8.41464 4.6177 -8.30165
H -7.83528 4.11329 -7.69403
H -9.20567 4.74292 -7.7323
O -1.20927 3.10107 -19.8344
H -1.28856 3.97115 -20.2846
H -2.08495 3.06475 -19.4017
O -3.65618 3.62874 -18.4779
H -3.5081 3.2216 -17.5996
H -3.6714 4.58184 -18.2472
O -6.54795 0.267188 -17.6799
H -6.99935 0.830189 -17.0127
H -6.329 0.963363 -18.3353
O 0.994278 -6.83036 -6.97825
H 1.64104 -6.45607 -6.34204
H 0.573748 -7.54237 -6.4428
O 2.61288 -7.6087 -15.1121
H 2.71634 -7.3468 -16.0564
H 3.03003 -6.82358 -14.6896
O -1.19507 5.30887 -16.4477
H -2.09105 5.62209 -16.6925
H -0.68904 5.66832 -17.2077
O -1.33153 -4.99131 -15.5577
H -0.552963 -4.39172 -15.617
H -1.2071 -5.35346 -14.6552
O -0.0543323 -4.38676 -7.60269
H -0.651108 -4.25757 -6.83831
H 0.280132 -5.29285 -7.42215
O -0.0973972 -8.17179 -14.9372
H -0.340419 -7.45866 -14.3038
H 0.871152 -8.01873 -15.0047
O -3.54552 6.26667 -17.5136
H -3.4912 7.06864 -18.0732
H -4.12333 6.57881 -16.7836
O -4.2498 -8.04608 -16.9733
H -4.46104 -7.81152 -16.0494
H -3.31105 -7.795 -17.0179
O 5.29954 -6.20006 -6.06115
H 4.35094 -6.11781 -5.8359
H 5.23642 -6.61683 -6.94623
O 4.68303 -2.68873 -11.8835
H 3.95657 -3.21379 -11.489
H 5.44391 -3.09699 -11.416
O -6.03463 2.36605 -19.4051
H -5.34553 2.93693 -19.0113
H -5.56871 2.11011 -20.2253
O -6.11395 -3.72399 -19.8511
H -6.75627 -3.01494 -19.6198
H -5.9391 -3.52528 20.6812
O 6.37893 5.94517 -9.82883
H 6.11456 6.76078 -10.3113
H 7.35741 6.0578 -9.85048
O -6.13657 -8.6163 -11.1967
H -6.32592 -8.66223 -12.1586
H -6.6838 -9.36888 -10.8911
O -8.72183 4.6984 -15.1076
H -9.43585 4.73794 -14.4496
H -9.2146 4.80743 -15.957
O -9.16222 7.76959 -4.90876
H -8.65125 7.87464 -4.07119
H -8.91469 6.84319 -5.10822
O -5.24018 6.57983 -2.44451
H -4.78894 5.87587 -1.93315
H -5.16767 6.21405 -3.35142
O 0.114571 6.03537 -18.7239
H -0.420276 5.88564 -19.5346
H 0.75693 5.30138 -18.7922
O 2.64353 5.67958 -2.0622
H 2.79041 4.73351 -2.1704
H 3.56886 6.01083 -2.09516
O 4.29142 6.40899 -20.5907
H 4.16343 5.55066 -20.1407
H 5.26427 6.4007 -20.6887
O -8.72566 1.40233 -3.89099
H -8.68977 0.479524 -3.55802
H -9.37908 1.29877 -4.61614
O -4.18741 1.68678 20.1403
H -3.68437 1.25978 -20.6063
H -4.3122 0.906973 19.5593
O -2.70893 2.87917 -3.34618
H -2.85796 3.27506 -4.22539
H -2.64654 1.93188 -3.56171
O 1.36436 3.5431 -18.7322
H 1.16511 3.25729 -17.8169
H 0.581806 3.18949 -19.2028
O 3.04149 2.06754 -5.78089
H 3.97074 2.08819 -6.09993
H 2.79865 3.00234 -5.95652
O -8.51311 -1.25054 -3.16585
H -7.63945 -1.57587 -2.87372
H -9.07243 -1.47685 -2.38819
O -3.09187 0.0296342 -19.3918
H -3.52451 -0.308085 -18.5801
H -2.78171 -0.804634 -19.8022
O -3.40384 -2.0009 -6.6133
H -4.17471 -1.60753 -6.14968
H -2.83763 -1.20408 -6.70029
O -2.07837 -2.29616 -20.504
H -1.91105 -2.06529 20.0314
H -1.15342 -2.34555 -20.1618
O -2.03294 -4.18888 -5.657
H -2.48433 -4.9483 -6.08528
H -2.57464 -3.43665 -5.98448
O -3.12127 -6.33905 -7.01118
H -2.75535 -6.82611 -7.76535
H -4.02117 -6.14716 -7.36504
O -2.00001 0.375417 -6.76055
H -1.12844 0.827548 -6.74066
H -2.37912 0.769018 -7.57587
O 2.46721 -1.67889 -2.80108
H 2.47385 -2.65331 -2.93386
H 2.9922 -1.36902 -3.57095
O 3.80607 -0.463873 -4.86417
H 3.46694 0.411715 -5.14835
H 4.60272 -0.197846 -4.35414
O -5.85859 -2.2116 -3.06238
H -5.91083 -3.18168 -3.1835
H -5.7554 -1.88371 -3.9806
O -2.94664 -7.68819 -4.61749
H -2.94226 -7.19276 -5.46694
H -3.91168 -7.65827 -4.41716
O -0.913771 -3.71121 -3.1859
H -1.69992 -3.8724 -2.62658
H -1.27069 -3.93662 -4.07519
O 1.81524 -4.34097 -3.15381
H 0.842352 -4.23678 -3.08595
H 1.99065 -5.00812 -2.4549
O 2.10307 -6.2337 -1.13466
H 1.13773 -6.31618 -0.973541
H 2.38415 -5.99396 -0.23261
O -5.82906 -5.09302 -2.99203
H -5.69275 -5.91104 -3.51147
H -5.78641 -5.48285 -2.0919
O -2.54396 -6.99096 -1.86901
H -2.29081 -7.91251 -1.61617
H -2.55837 -7.08609 -2.83972
O -2.98488 8.65192 -19.0345
H -2.08007 8.83605 -18.7145
H -2.80253 8.5935 -19.9947
O -8.87535 2.49593 -18.965
H -7.95723 2.49334 -19.3007
H -9.2757 1.78101 -19.503
O -9.93639 5.16273 -12.5101
H -9.48318 4.41261 -12.0696
H -9.53458 5.90188 -12.0266
O 9.0733 6.06121 -9.49095
H 9.26233 6.01288 -8.53317
H 9.89803 6.46642 -9.82636
O 9.40516 5.00304 -6.88999
H 8.58851 4.55674 -7.1933
H 9.19562 5.07987 -5.93733
O 6.22606 3.84363 -0.877646
H 5.82929 4.64087 -1.27784
H 7.1642 3.98007 -1.13285
O 7.64181 1.14685 -17.2651
H 8.42249 1.71153 -17.1947
H 7.75947 0.5396 -16.5011
O 7.88093 -0.675592 -15.1981
H 7.02163 -1.06103 -14.92
H 8.30799 -0.518806 -14.3473
O 9.2184 0.966279 -8.54909
H 9.90923 0.523647 -9.10023
H 9.0661 1.77167 -9.0853
O 7.12339 3.93694 -8.04215
H 6.67097 4.62091 -8.5732
H 7.651 3.49897 -8.74351
O 7.45457 -0.651072 -19.3356
H 8.33853 -0.559002 -19.7598
H 7.53778 0.0432093 -18.6488
O 5.23361 -4.38627 -19.9572
H 5.77889 -4.29213 20.7041
H 5.21027 -5.36244 -19.8529
O 5.53026 -1.95009 -14.4568
H 5.58792 -2.83733 -14.8604
H 5.20388 -2.16746 -13.5567
O -9.06246 -0.168468 -10.0753
H -8.89399 -0.0638898 -11.0406
H -8.15617 -0.40306 -9.78173
O 6.0502 0.146297 -3.32065
H 6.63773 -0.639576 -3.31032
H 6.6338 0.832201 -3.70936
O 7.49071 -2.2764 -3.64211
H 6.71513 -2.81332 -3.91746
H 7.99032 -2.9672 -3.15765
O 5.0413 -7.09861 -19.534
H 5.79442 -7.57218 -19.1221
H 4.38324 -7.1004 -18.8071
O 5.71183 -4.32855 -15.9871
H 6.25137 -5.14921 -15.9821
H 6.16926 -3.83382 -16.7075
O 6.51682 -4.10272 -10.4043
H 7.45936 -4.38573 -10.4229
H 6.40415 -3.86703 -9.46003
O 6.14061 -3.1873 -7.82735
H 5.2564 -3.09259 -7.42484
H 6.4226 -2.24914 -7.89916
O -8.71721 -5.24338 -3.32242
H -7.75775 -5.08368 -3.3243
H -8.74857 -6.07765 -3.84075
O 9.07852 -8.3371 -3.35075
H 9.97423 -8.2379 -3.74159
H 8.56635 -7.76546 -3.96244
O 7.07524 -6.80527 -15.8903
H 7.44504 -7.04934 -15.0116
H 6.32371 -7.44881 -15.9195
O -7.48706 -6.19858 -11.4193
H -7.05107 -7.05118 -11.2296
H -6.79368 -5.57133 -11.1482
O -9.52224 -2.88642 -10.6011
H -8.71213 -2.94393 -11.1464
H -9.51051 -1.9485 -10.3436
O 7.79622 -6.41665 -4.89126
H 6.86485 -6.55188 -5.16456
H 8.10142 -5.85819 -5.63664
O 9.72315 -7.02026 -19.2336
H -9.57955 -7.36975 -19.4457
H 9.49149 -6.5314 -20.0527
O -7.85159 -6.64439 -15.4924
H -8.78534 -6.63112 -15.8141
H -7.39419 -6.53397 -16.348
O 5.40014 6.87571 -14.1397
H 5.90646 7.17476 -14.9264
H 6.1198 6.42975 -13.6488
O -8.09793 5.14176 -4.88563
H -8.00322 4.32493 -5.4006
H -8.4386 4.79301 -4.03261
O -4.85432 6.41901 -7.64201
H -5.27975 7.20089 -8.0593
H -3.91457 6.58232 -7.85553
O 0.162042 6.14157 -3.4534
H -0.437639 5.94359 -2.69814
H 1.03326 6.06563 -3.01646
O 4.1387 8.52416 -5.08939
H 3.52177 8.00969 -5.65054
H 3.53702 8.94018 -4.46421
O 6.4603 -9.27434 -6.88902
H 5.95262 -8.63504 -7.42463
H 7.36806 -8.91134 -6.93453
O -7.52193 9.45326 -6.56474
H -7.72701 -9.64691 -6.18945
H -8.10971 8.89121 -6.03293
O -5.97642 8.71165 -8.73443
H -6.44944 9.03984 -7.93333
H -6.63205 8.94067 -9.42234
O -0.0474561 8.15589 -7.5743
H -0.197213 9.05191 -7.9
H -0.197361 8.27076 -6.60774
O 2.56778 7.24431 -6.96887
H 1.73368 7.56333 -7.37042
H 3.24129 7.51204 -7.6181
O 5.31606 7.78168 -7.99347
H 5.41407 8.35348 -8.78277
H 5.5727 6.93216 -8.39362
O -8.51164 6.55512 -10.3035
H -8.3546 5.97548 -9.52672
H -7.6889 6.37225 -10.8132
O -6.2996 5.82929 -11.7001
H -6.21432 4.85244 -11.692
H -5.42595 6.09143 -11.3432
O -3.73404 6.11939 -10.4903
H -3.51969 5.29404 -10.9779
H -3.08063 6.08053 -9.76236
O 0.570476 -7.73585 -11.1789
H -0.174235 -8.36136 -11.0585
H 1.23332 -8.27194 -11.6649
O 5.08068 -8.30834 -11.1416
H 5.69527 -8.92807 -11.5849
H 4.226 -8.5388 -11.56
O 7.11094 -9.84604 -12.4128
H 7.63067 9.48936 -12.9356
H 7.46588 -9.00763 -12.7801
O -7.02151 -8.69821 -13.7839
H -7.4052 -8.01625 -14.3765
H -7.72628 -9.37778 -13.78
O -7.71819 -8.08175 -19.4018
H -6.88918 -8.58036 -19.2394
H -7.51083 -7.24073 -18.9368
O -2.34848 -9.25333 -13.6085
H -1.53417 -9.03481 -14.0975
H -2.05542 -9.15349 -12.678
O 2.69684 -8.89376 -12.5777
H 2.67691 -8.59239 -13.5058
H 3.0271 -9.81541 -12.6756
O 5.12525 -8.64864 -16.0185
H 4.22408 -8.55563 -15.6746
H 5.00662 -9.35836 -16.6836
O -9.94548 4.74378 -17.5486
H -9.68382 4.07691 -18.2132
H 9.84754 5.44434 -18.1023
O -5.32037 -9.51065 -18.9837
H -4.70371 9.71234 -18.9627
H -4.97543 -8.9915 -18.2182
O -1.59153 -7.21353 -17.119
H -1.1003 -7.74982 -16.4639
H -1.55645 -6.34001 -16.6664
O -0.184746 8.74413 -18.5336
H 0.611287 8.96755 -19.0504
H -0.107572 7.7654 -18.5528
O 7.13829 7.44698 -16.1886
H 6.8314 6.68003 -16.7287
H 7.30014 8.08571 -16.9077
O -5.57989 -7.79249 -3.90592
H -5.57839 -8.66754 -3.47508
H -6.4734 -7.81897 -4.32081
O -6.53984 7.35668 20.5422
H -7.14174 7.60189 -20.2139
H -7.12149 7.52176 19.7742
O 6.95661 7.2319 -4.11327
H 7.41208 6.38053 -4.29279
H 7.69162 7.77111 -3.74599
O 9.13219 -2.76358 -16.6304
H 8.79928 -1.986 -16.1467
H 8.38332 -2.94776 -17.225
O 9.59526 0.853344 -5.85452
H 9.57965 1.03039 -6.82198
H 9.45937 -0.112255 -5.85831
O 8.96518 3.32103 -9.9771
H 9.81679 3.14702 -10.4311
H 8.9834 4.29871 -9.97292
O 7.94907 -7.37459 -13.3567
H 8.82223 -6.99275 -13.1174
H 7.32875 -6.747 -12.9314
O 8.77077 -1.8219 -5.99878
H 8.28864 -1.93853 -5.14658
H 8.06242 -1.484 -6.58932
O 8.53909 8.16536 -13.8577
H 8.18217 8.03492 -14.761
H 8.2775 7.31568 -13.4585
O 7.60108 5.61923 -12.9762
H 7.2263 4.73159 -12.9114
H 8.55226 5.42429 -12.8191
O 8.75267 -4.72119 -2.95097
H 9.71451 -4.84695 -3.08723
H 8.3866 -5.31953 -3.6351
O 9.07639 -5.0472 -10.6403
H 9.47475 -5.45907 -11.4349
H 9.64467 -4.24017 -10.5764
O 9.84523 -6.52182 -16.5058
H 8.90122 -6.41491 -16.3054
H 9.83276 -6.59924 -17.4814
O 9.24779 -8.72389 -6.87878
H 9.97754 -8.51836 -6.25731
H 9.39728 -8.00221 -7.52689
O -3.77583 8.84801 -10.5293
H -3.73493 7.86803 -10.5389
H -4.48614 8.98741 -9.87157
O 7.27123 9.11427 -18.4374
H 6.2967 9.09779 -18.3003
H 7.41615 -9.89455 -18.3816
O -0.489435 8.47701 -4.89927
H -0.241121 7.68771 -4.37339
H -1.35912 8.70741 -4.50298
O -7.79778 9.18922 -10.8168
H -8.2103 9.32055 -11.6969
H -8.2117 8.34272 -10.5616
O -2.78577 9.61392 -3.9533
H -2.87463 -9.45195 -4.28775
H -3.72949 9.40928 -3.77007
O -1.8931 -9.5642 -1.46479
H -1.40557 9.68007 -1.03961
H -2.18462 9.98474 -2.29003
O 8.97561 8.85746 -3.13584
H 9.72982 8.69712 -3.73063
H 8.95125 9.84125 -3.12722
O 8.63004 8.6079 -6.28714
H 8.90081 9.4998 -6.59742
H 9.47679 8.26539 -5.94498
O 5.74564 8.4722 -10.6761
H 6.38175 9.05371 -11.1443
H 4.98299 8.55249 -11.2884
O -8.90043 9.16779 -13.3861
H -9.82243 8.92895 -13.6025
H -8.41147 8.38609 -13.7279
O -8.82341 8.74606 -19.5805
H -8.92177 9.32238 -20.3636
H -8.44229 9.36284 -18.9443
O -4.05527 8.61568 -13.3191
H -3.42043 9.31754 -13.5644
H -4.0736 8.72543 -12.3516
O 3.8423 8.61334 -12.6432
H 4.38456 8.09673 -13.2778
H 3.122 7.96364 -12.463
O 4.60188 9.33557 -17.8523
H 3.99483 9.36449 -18.6148
H 4.13038 8.66095 -17.3158
O -5.38199 9.31443 -3.18065
H -5.18126 8.44855 -2.77033
H -6.34314 9.21106 -3.27971
O 2.75539 0.127421 4.68413
H 2.35232 0.994406 4.46404
H 3.11213 0.302765 5.57506
O 1.51905 -0.66429 8.31028
H 1.62356 -1.00146 9.22474
H 0.95971 -1.38128 7.94007
O -6.91945 -0.987276 9.78765
H -6.73941 -1.62962 10.5123
H -6.01522 -0.88661 9.42151
O 4.58118 2.76346 6.21085
H 4.36634 1.89954 6.60661
H 4.58628 3.34113 6.99629
O -5.18786 2.81786 7.69935
H -5.36521 1.99201 7.20758
H -4.20814 2.81626 7.72518
O -7.81532 -3.21296 3.84544
H -7.99451 -2.53506 4.52154
H -8.70283 -3.58777 3.67997
O -7.62566 -1.40979 6.03066
H -7.27599 -2.24853 6.4019
H -6.84664 -0.819277 6.06419
O 2.26017 6.30552 7.70498
H 1.96116 5.55083 8.25714
H 1.82273 7.02713 8.21028
O -0.266469 1.49509 8.72369
H 0.287399 0.773826 8.3665
H 0.289512 1.75032 9.48867
O 8.37911 -6.31721 10.6216
H 7.80999 -5.90723 11.317
H 8.68633 -5.50427 10.1731
O 2.80704 -4.01399 9.18283
H 3.32015 -4.82499 9.35317
H 2.79621 -3.98037 8.20476
O -3.16984 -5.5693 6.8206
H -3.3152 -4.86394 6.15504
H -3.52532 -6.34609 6.32577
O 3.96231 -5.5675 4.67935
H 4.55073 -5.66318 5.4673
H 4.56435 -5.09644 4.06947
O -6.98765 -3.88171 7.1023
H -6.25763 -4.2723 7.62173
H -7.37029 -4.6849 6.69076
O -2.63207 -1.77382 6.94673
H -1.73532 -2.07638 7.21588
H -2.90721 -2.50068 6.34499
O 6.6963 -5.22828 12.3678
H 6.28771 -4.42431 11.9836
H 5.95782 -5.59827 12.8911
O -4.44599 -6.47329 10.9656
H -4.6261 -5.97278 10.1494
H -5.20303 -6.19645 11.5173
O 1.72051 2.54615 3.80377
H 0.762669 2.31752 3.88976
H 1.73034 3.369 4.34931
O -2.69847 1.06247 10.0016
H -3.01785 1.94037 10.3093
H -1.88856 1.31304 9.50854
O 5.51076 -5.61562 6.87419
H 5.85403 -6.48785 7.13841
H 5.90502 -5.02472 7.54915
O -5.01991 -5.00033 8.72546
H -4.57984 -4.28063 9.23303
H -4.29761 -5.25379 8.10223
O -3.64963 3.35372 11.2075
H -3.7131 4.33106 11.1744
H -4.5481 3.14693 11.5465
O -8.32423 2.17919 1.57203
H -8.01393 2.45393 0.685617
H -8.41533 3.04938 2.00556
O 4.24468 4.44691 8.51285
H 3.42396 4.20915 8.98948
H 3.9381 5.23762 8.04031
O 6.11491 -7.98366 10.7377
H 5.39485 -7.39138 10.4352
H 6.90448 -7.46162 10.4864
O -1.12056 -9.28323 7.70982
H -1.23709 9.78815 8.0472
H -1.76915 -8.81744 8.29236
O 3.77662 6.28266 3.55864
H 4.09823 5.37347 3.37097
H 4.53623 6.6172 4.08314
O 4.37028 3.56789 3.56632
H 3.49756 3.13843 3.5062
H 4.61588 3.30625 4.48377
O 6.20409 2.40097 11.6227
H 6.01392 1.94626 10.7733
H 6.30221 3.32215 11.2987
O 7.17222 -0.747014 10.6191
H 6.43531 -0.145055 10.4011
H 7.81267 -0.409654 9.95602
O 4.43076 -0.370016 2.57459
H 3.9101 -0.224129 3.39196
H 5.25156 -0.739742 2.95354
O 3.51962 -2.05009 12.6301
H 3.33269 -1.29271 13.2134
H 2.75017 -2.02848 12.0185
O -2.90749 0.270669 5.15525
H -3.27827 -0.205974 4.37941
H -2.68605 -0.462793 5.76551
O -2.39283 3.02214 7.59195
H -2.40477 3.13311 6.61587
H -1.5796 2.49752 7.73537
O -4.28712 -0.807866 8.87074
H -3.62092 -1.17695 8.24377
H -3.75427 -0.0958663 9.30139
O 1.66533 4.33124 9.58097
H 0.899656 4.77423 10.0065
H 1.58804 3.454 10.0119
O -2.40328 2.70183 13.6023
H -3.07271 3.32744 13.9651
H -2.71107 2.69638 12.6706
O -5.72921 -0.810715 13.8636
H -6.00081 0.0841939 14.1369
H -6.60527 -1.22339 13.7591
O 1.98156 4.87043 5.2523
H 2.57376 5.46498 4.76602
H 1.88312 5.3462 6.09476
O -4.37407 4.54086 14.0495
H -4.24861 5.23008 13.3626
H -5.10061 4.02821 13.6401
O 6.09227 -8.83611 -0.551277
H 5.70234 -8.61767 0.317358
H 6.78119 -8.14685 -0.656091
O -4.10206 -0.9791 3.05577
H -4.75473 -0.285982 2.78596
H -4.6751 -1.77625 3.05816
O 8.74589 4.70235 -1.70667
H 8.8684 5.58966 -1.30666
H 9.67454 4.42072 -1.85625
O -7.67058 1.58949 10.7109
H -8.54859 1.38381 11.0982
H -7.37332 0.695143 10.4553
O -7.84274 3.20101 8.43824
H -6.91327 3.09706 8.15035
H -7.81262 2.68326 9.2699
O 8.38063 4.60349 13.8065
H 8.36888 3.62868 13.7848
H 7.51581 4.79282 14.2366
O -0.386993 4.56999 13.5789
H -0.464495 4.9891 14.4592
H -1.07537 3.87867 13.645
O -0.446085 7.58224 3.99301
H -0.981348 8.02336 3.30334
H -1.10039 7.52439 4.71061
O -6.88022 6.11609 4.52331
H -7.36064 5.73105 5.28618
H -7.32031 5.66055 3.77823
O 1.89429 7.3774 0.0128892
H 2.1233 6.71796 -0.673995
H 1.63054 6.81296 0.773465
O 1.27018 6.19914 2.38368
H 0.669296 6.64755 3.02645
H 2.11132 6.21869 2.8799
O 5.05837 -3.443 14.4813
H 4.47773 -2.93604 13.876
H 4.85015 -4.3598 14.2018
O -6.03399 2.90927 12.5089
H -6.37114 2.41038 13.2883
H -6.63397 2.55472 11.818
O -3.18927 -8.35313 9.20482
H -4.0324 -8.5412 8.74358
H -3.51078 -7.86745 9.98391
O -0.04249 -9.2863 11.3066
H 0.0277009 9.74093 11.4731
H -0.955046 -9.12814 11.6212
O 2.10882 -7.15445 13.9134
H 1.64976 -7.79807 14.4928
H 1.66094 -6.33556 14.219
O -0.470504 -5.97272 -0.282818
H -0.863492 -6.05028 0.608466
H -1.21856 -6.24697 -0.850653
O -3.92857 -3.11576 10.3956
H -4.62053 -3.06235 11.0845
H -4.00012 -2.2274 10.0018
O -3.32356 -3.56686 4.99836
H -4.0465 -3.55393 4.33048
H -2.53296 -3.66813 4.43716
O 1.61222 -2.37579 4.29643
H 1.90006 -1.45245 4.4632
H 2.18286 -2.60372 3.53017
O 0.750019 -4.97523 14.8226
H 0.00174273 -5.2776 15.3811
H 1.26798 -4.48142 15.4933
O 2.80019 -3.74542 6.41735
H 2.21747 -3.25716 5.80284
H 3.056 -4.50347 5.85445
O -6.4533 -2.92558 11.689
H -7.06839 -2.55829 12.3569
H -6.4416 -3.86471 11.9755
O -3.28696 -3.68259 -1.69379
H -3.2516 -4.15874 -0.836771
H -4.0168 -4.15096 -2.13252
O -8.02522 -6.44359 6.58464
H -7.99051 -6.6788 7.5321
H -7.55448 -7.19392 6.17874
O -8.68179 -6.35736 0.998692
H -8.54871 -5.55821 0.439429
H -9.64072 -6.26528 1.17237
O 1.54395 -2.14728 10.6743
H 2.00845 -2.872 10.1885
H 0.629602 -2.49156 10.6842
O -0.448537 -5.18423 6.44522
H -1.33802 -5.46509 6.75059
H 0.0700672 -6.00589 6.58864
O -5.26257 -3.46899 3.05183
H -6.20434 -3.40368 3.35347
H -5.34636 -4.14163 2.36346
O -2.1998 -2.62155 1.95582
H -1.54125 -2.80646 2.6462
H -2.75718 -1.93091 2.37107
O 3.87247 -6.62133 9.6747
H 3.09146 -6.78866 10.2518
H 3.63584 -7.11152 8.88
O 6.13895 8.02549 15.1951
H 6.39828 8.30842 14.2926
H 6.91985 8.34846 15.6965
O -6.95218 1.56643 14.6859
H -6.53629 1.4652 15.5698
H -7.89452 1.68867 14.9222
O -0.214177 -2.75764 7.75924
H -0.092573 -3.63204 7.33396
H -0.447015 -3.02999 8.67709
O -4.15894 -7.53551 5.26373
H -5.02354 -7.96658 5.13282
H -3.5347 -8.27372 5.11949
O -0.99496 -3.36703 10.3017
H -1.93908 -3.2249 10.506
H -0.762244 -4.05902 10.9597
O 5.75089 1.15427 9.22283
H 6.52028 1.28026 8.64511
H 5.05409 0.913091 8.58156
O 1.97075 -5.33195 1.50343
H 1.09138 -5.09334 1.1734
H 2.36124 -4.45572 1.71023
O -0.222606 0.94937 13.0429
H 0.178812 0.535347 13.8387
H -0.892964 1.54066 13.4315
O 3.27678 -2.97994 2.20591
H 4.11092 -3.46756 2.35314
H 3.63351 -2.12535 1.89979
O -5.37173 0.264303 6.53876
H -4.57517 0.342277 5.97946
H -5.01889 -0.16047 7.34295
O -8.33122 -1.80441 13.482
H -8.59479 -1.5232 14.3868
H -9.20249 -1.91033 13.0632
O -1.84071 -1.1497 15.6045
H -2.34842 -1.68979 14.9611
H -0.942181 -1.1553 15.2282
O 2.32975 4.15458 13.6559
H 1.37762 4.3078 13.4809
H 2.30813 4.11943 14.6376
O 6.03948 -3.06628 0.549318
H 5.78291 -3.42988 -0.329763
H 6.62008 -2.32507 0.278647
O 8.27504 1.79298 13.3336
H 7.52176 1.99633 12.7318
H 8.95095 1.5048 12.6804
O 6.10836 4.86668 1.79216
H 5.60853 4.24424 2.35667
H 6.14672 4.38497 0.945375
O 3.91653 0.248364 7.27561
H 3.07373 -0.0483811 7.69382
H 4.35567 -0.617099 7.10724
O -2.95479 3.53153 4.92729
H -3.26777 4.45818 4.82145
H -3.66664 3.05241 4.48545
O -10.0384 -1.78673 -0.935935
H -9.90423 -1.18032 -0.176713
H 9.17565 -1.7774 -0.96315
O -0.881989 1.90929 4.16149
H -1.46291 2.68273 4.3066
H -1.47868 1.21735 4.50636
O -0.503971 5.37812 10.9472
H -0.477757 6.32144 11.2008
H -0.491218 4.97539 11.8416
O -4.07122 5.98732 4.53246
H -5.03794 6.14084 4.59022
H -3.70276 6.74065 5.04381
O 1.31048 1.95714 10.9727
H 0.71681 1.58252 11.6607
H 2.17028 1.82997 11.4234
O 4.24436 5.65682 12.4319
H 3.4831 5.19185 12.8456
H 3.8074 6.45667 12.0685
O 8.74943 7.34387 -0.850059
H 8.91808 7.92582 -1.62351
H 7.90007 7.71062 -0.535967
O -6.50394 -5.50302 12.6766
H -7.37953 -5.4331 13.1063
H -6.18804 -6.32525 13.1084
O -7.06703 6.42447 11.8957
H -7.38552 5.92763 12.6592
H -7.36429 7.33665 12.1122
O -3.87465 4.33509 -1.3497
H -3.53532 3.77279 -2.08311
H -4.1278 3.62465 -0.718929
O -5.8238 0.921436 2.18452
H -6.73753 1.25414 2.11433
H -5.37616 1.46611 1.49592
O 1.69287 -7.19609 11.226
H 1.94395 -7.31467 12.1672
H 1.07144 -7.95458 11.1189
O 2.62218 -7.41742 3.17907
H 2.38114 -6.74463 2.50265
H 3.07751 -6.82776 3.82368
O -0.51201 4.55943 1.09374
H -1.32488 4.87575 1.55355
H 0.1704 5.0263 1.61671
O -0.692578 -3.81838 4.07373
H 0.111105 -3.2496 4.12592
H -0.5772 -4.31564 4.91717
O -0.12072 -5.20935 12.1268
H 0.245213 -5.0244 13.0174
H 0.56652 -5.79142 11.7427
O -0.0357054 -7.75851 3.98703
H 0.236955 -7.61055 4.91754
H 0.845076 -7.81246 3.56565
O -2.58467 5.87484 2.21931