LAMMPS data file via write_data, version 29 Sep 2021, timestep = 10

1835 atoms
15 atom types
1040 bonds
12 bond types
552 angles
23 angle types
62 dihedrals
20 dihedral types
4 impropers
3 improper types

-10.094 10.094 xlo xhi
-9.99 9.9900035802 ylo yhi
-36.864073260000005 20.737 zlo zhi

Masses

1 1.008
2 1.008
3 1.008
4 1.008
5 12.011
6 12.011
7 12.011
8 12.011
9 14.007
10 14.007
11 15.999
12 15.999
13 22.99
14 35.45
15 197

PairIJ Coeffs # lj/charmmfsw/coul/long

1 1 0.034 2.38761 0.034 2.38761
1 2 0.0273496 2.36979 0.0273496 2.36979
1 3 0.0395474 1.39381 0.0395474 1.39381
1 4 0.0395474 1.39381 0.0395474 1.39381
1 5 0.0611555 2.9756 0.0611555 2.9756
1 6 0.0487852 2.9756 0.0487852 2.9756
1 7 0.0329848 2.9756 0.0184391 2.88651
1 8 0.0436348 2.98451 0.0184391 2.88651
1 9 0.0824621 2.84197 0.0824621 2.84197
1 10 0.0824621 2.84197 0.0824621 2.84197
1 11 0.0638749 2.70833 0.0638749 2.70833
1 12 0.0719124 2.76909 0.0719124 2.76909
1 13 0.0399324 2.45064 0.0399324 2.45064
1 14 0.0714143 3.21614 0.0714143 3.21614
1 15 0.424099 2.5083 0.424099 2.5083
2 2 0.022 2.35197 0.022 2.35197
2 3 0.0318119 1.37599 0.0318119 1.37599
2 4 0.0318119 1.37599 0.0318119 1.37599
2 5 0.0491935 2.95778 0.0491935 2.95778
2 6 0.0392428 2.95778 0.0392428 2.95778
2 7 0.026533 2.95778 0.0148324 2.86869
2 8 0.0350999 2.96669 0.0148324 2.86869
2 9 0.0663325 2.82415 0.0663325 2.82415
2 10 0.0663325 2.82415 0.0663325 2.82415
2 11 0.0513809 2.69051 0.0513809 2.69051
2 12 0.0578463 2.75127 0.0578463 2.75127
2 13 0.0321216 2.43282 0.0321216 2.43282
2 14 0.0574456 3.19833 0.0574456 3.19833
2 15 0.341145 2.49049 0.341145 2.49049
3 3 0.046 0.400014 0.046 0.400014
3 4 0.046 0.400014 0.046 0.400014
3 5 0.0711337 1.9818 0.0711337 1.9818
3 6 0.056745 1.9818 0.056745 1.9818
3 7 0.0383667 1.9818 0.0214476 1.89271
3 8 0.0507543 1.99071 0.0214476 1.89271
3 9 0.0959166 1.84817 0.0959166 1.84817
3 10 0.0959166 1.84817 0.0959166 1.84817
3 11 0.0742967 1.71453 0.0742967 1.71453
3 12 0.0836457 1.77529 0.0836457 1.77529
3 13 0.0464478 1.45684 0.0464478 1.45684
3 14 0.0830662 2.22235 0.0830662 2.22235
3 15 0.493295 1.51451 0.493295 1.51451
4 4 0.046 0.400014 0.046 0.400014
4 5 0.0711337 1.9818 0.0711337 1.9818
4 6 0.056745 1.9818 0.056745 1.9818
4 7 0.0383667 1.9818 0.0214476 1.89271
4 8 0.0507543 1.99071 0.0214476 1.89271
4 9 0.0959166 1.84817 0.0959166 1.84817
4 10 0.0959166 1.84817 0.0959166 1.84817
4 11 0.0742967 1.71453 0.0742967 1.71453
4 12 0.0836457 1.77529 0.0836457 1.77529
4 13 0.0464478 1.45684 0.0464478 1.45684
4 14 0.0830662 2.22235 0.0830662 2.22235
4 15 0.493295 1.51451 0.493295 1.51451
5 5 0.11 3.56359 0.11 3.56359
5 6 0.0877496 3.56359 0.0877496 3.56359
5 7 0.0593296 3.56359 0.0331662 3.47451
5 8 0.0784857 3.5725 0.0331662 3.47451
5 9 0.148324 3.42996 0.148324 3.42996
5 10 0.148324 3.42996 0.148324 3.42996
5 11 0.114891 3.29633 0.114891 3.29633
5 12 0.129348 3.35708 0.129348 3.35708
5 13 0.0718262 3.03863 0.0718262 3.03863
5 14 0.128452 3.80414 0.128452 3.80414
5 15 0.762824 3.0963 0.762824 3.0963
6 6 0.07 3.56359 0.07 3.56359
6 7 0.0473286 3.56359 0.0264575 3.47451
6 8 0.0626099 3.5725 0.0264575 3.47451
6 9 0.118322 3.42996 0.118322 3.42996
6 10 0.118322 3.42996 0.118322 3.42996
6 11 0.0916515 3.29633 0.0916515 3.29633
6 12 0.103184 3.35708 0.103184 3.35708
6 13 0.0572975 3.03863 0.0572975 3.03863
6 14 0.10247 3.80414 0.10247 3.80414
6 15 0.608523 3.0963 0.608523 3.0963
7 7 0.032 3.56359 0.01 3.38542
7 8 0.042332 3.5725 0.01 3.38542
7 9 0.08 3.42996 0.0447214 3.34087
7 10 0.08 3.42996 0.0447214 3.34087
7 11 0.0619677 3.29633 0.034641 3.20724
7 12 0.0697653 3.35708 0.039 3.26799
7 13 0.0387402 3.03863 0.0216564 2.94954
7 14 0.069282 3.80414 0.0387298 3.71505
7 15 0.411437 3.0963 0.23 3.00721
8 8 0.056 3.58141 0.01 3.38542
8 9 0.10583 3.43887 0.0447214 3.34087
8 10 0.10583 3.43887 0.0447214 3.34087
8 11 0.0819756 3.30523 0.034641 3.20724
8 12 0.0922908 3.36599 0.039 3.26799
8 13 0.0512484 3.04754 0.0216564 2.94954
8 14 0.0916515 3.81305 0.0387298 3.71505
8 15 0.544279 3.10521 0.23 3.00721
9 9 0.2 3.29633 0.2 3.29633
9 10 0.2 3.29633 0.2 3.29633
9 11 0.154919 3.2402 0.154919 3.2402
9 12 0.174413 3.22345 0.174413 3.22345
9 13 0.0968504 2.905 0.0968504 2.905
9 14 0.173205 3.6705 0.173205 3.6705
9 15 1.02859 2.96266 1.02859 2.96266
10 10 0.2 3.29633 0.2 3.29633
10 11 0.154919 3.16269 0.154919 3.16269
10 12 0.174413 3.22345 0.174413 3.22345
10 13 0.0968504 2.905 0.0968504 2.905
10 14 0.173205 3.6705 0.173205 3.6705
10 15 1.02859 2.96266 1.02859 2.96266
11 11 0.12 3.02906 0.12 3.02906
11 12 0.1351 3.08981 0.1351 3.08981
11 13 0.07502 2.8776 0.07502 2.8776
11 14 0.134164 3.53687 0.134164 3.53687
11 15 0.796743 2.82903 0.796743 2.82903
12 12 0.1521 3.15057 0.1521 3.15057
12 13 0.08446 2.83212 0.08446 2.83212
12 14 0.151046 3.59763 0.151046 3.59763
12 15 0.897 2.88979 0.897 2.88979
13 13 0.0469 2.51367 0.0469 2.51367
13 14 0.0839 3.32394 0.0839 3.32394
13 15 0.498097 2.57134 0.498097 2.57134
14 14 0.15 4.04468 0.15 4.04468
14 15 0.890786 3.33684 0.890786 3.33684
15 15 5.29 2.629 5.29 2.629

Bond Coeffs # harmonic

1 200 1.522
2 222.5 1.538
3 222.5 1.53
4 309 1.111
5 330 1.08
6 450 0.9572
7 450 1.365
8 390 1.49
9 455 1
10 200 1.48
11 403 1.04
12 525 1.26

Angle Coeffs # charmm

1 52 108 0 0
2 58.35 113.5 11.16 2.561
3 58.35 113.6 11.16 2.561
4 62.3 120 0 0
5 26.5 110.1 22.53 2.179
6 26.5 110.1 22.53 2.179
7 35.5 109 5.4 1.802
8 50 109.5 0 0
9 35 111 0 0
10 49 120 0 0
11 40.4 120 0 0
12 25 120 0 0
13 30 109.5 20 2.074
14 44 109.5 0 0
15 55 104.52 0 0
16 40 120 70 2.31
17 67.7 107.5 0 0
18 56.5 107.5 0 0
19 43.7 110 0 0
20 67.7 110 0 0
21 51.5 107.5 0 0
22 40 118 50 2.388
23 100 124 70 2.225

Dihedral Coeffs # charmmfsw

1 0.63 1 180 1
2 0.01 2 0 0
3 0.15 3 0 0
4 0.19 3 0 1
5 0.19 3 0 1
6 0.19 3 0 1
7 0 6 180 1
8 0 6 180 1
9 2.25 2 180 1
10 0.19 3 0 1
11 0.19 3 0 1
12 0 6 180 1
13 0 6 180 1
14 0.2 3 0 1
15 0.2 3 0 1
16 2.25 2 180 1
17 3.2 2 180 1
18 0.05 6 180 1
19 0.2 3 0 1
20 0.1 3 0 1

Improper Coeffs # harmonic

1 0 0
2 45 0
3 96 0

Atoms # full

74 15 4 0.417 -9.2951120438 -7.2746859369 -36.614207595500005 0 0 1
75 15 4 0.417 -8.2802412378 -8.3940904334 -36.70836709860001 0 0 1
1552 0 15 0 -8.1564 -8.1564 -36.7038 0 0 0
1553 0 15 0 -6.1173 -6.1173 -36.7038 0 0 0
1554 0 15 0 -6.1173 -8.1564 -34.664699999999996 0 0 0
1555 0 15 0 -8.1564 -6.1173 -34.664699999999996 0 0 0
1556 0 15 0 -4.0782 -8.1564 -36.7038 0 0 0
1557 0 15 0 -2.0391 -6.1173 -36.7038 0 0 0
1558 0 15 0 -2.0391 -8.1564 -34.664699999999996 0 0 0
1559 0 15 0 -4.0782 -6.1173 -34.664699999999996 0 0 0
1570 0 15 0 -8.1564 -4.0782 -36.7038 0 0 0
1571 0 15 0 -6.1173 -2.0391 -36.7038 0 0 0
1572 0 15 0 -6.1173 -4.0782 -34.664699999999996 0 0 0
1573 0 15 0 -8.1564 -2.0391 -34.664699999999996 0 0 0
1574 0 15 0 -4.0782 -4.0782 -36.7038 0 0 0
1575 0 15 0 -2.0391 -2.0391 -36.7038 0 0 0
1576 0 15 0 -2.0391 -4.0782 -34.664699999999996 0 0 0
1577 0 15 0 -4.0782 -2.0391 -34.664699999999996 0 0 0
1588 0 15 0 -8.1564 0 -36.7038 0 0 0
1590 0 15 0 -6.1173 0 -34.664699999999996 0 0 0
1592 0 15 0 -4.0782 0 -36.7038 0 0 0
1594 0 15 0 -2.0391 0 -34.664699999999996 0 0 0
1633 0 15 0 -8.1564 -8.1564 -32.6256 0 0 0
1634 0 15 0 -6.1173 -6.1173 -32.6256 0 0 0
1635 0 15 0 -6.1173 -8.1564 -30.586499999999997 0 0 0
1636 0 15 0 -8.1564 -6.1173 -30.586499999999997 0 0 0
1637 0 15 0 -4.0782 -8.1564 -32.6256 0 0 0
1638 0 15 0 -2.0391 -6.1173 -32.6256 0 0 0
1639 0 15 0 -2.0391 -8.1564 -30.586499999999997 0 0 0
1640 0 15 0 -4.0782 -6.1173 -30.586499999999997 0 0 0
1651 0 15 0 -8.1564 -4.0782 -32.6256 0 0 0
1652 0 15 0 -6.1173 -2.0391 -32.6256 0 0 0
1653 0 15 0 -6.1173 -4.0782 -30.586499999999997 0 0 0
1654 0 15 0 -8.1564 -2.0391 -30.586499999999997 0 0 0
1655 0 15 0 -4.0782 -4.0782 -32.6256 0 0 0
1656 0 15 0 -2.0391 -2.0391 -32.6256 0 0 0
1657 0 15 0 -2.0391 -4.0782 -30.586499999999997 0 0 0
1658 0 15 0 -4.0782 -2.0391 -30.586499999999997 0 0 0
1669 0 15 0 -8.1564 0 -32.6256 0 0 0
1671 0 15 0 -6.1173 0 -30.586499999999997 0 0 0
1673 0 15 0 -4.0782 0 -32.6256 0 0 0
1675 0 15 0 -2.0391 0 -30.586499999999997 0 0 0
413 128 4 0.417 2.2118330731 -0.0998278712 -36.479010254900004 0 0 1
1404 458 4 0.417 7.9028767535 -2.595155475 -36.65715215870001 0 0 1
1532 501 4 0.417 7.0761349787 -9.7716758931 -36.21238557810001 0 0 1
1533 501 4 0.417 6.2703425426 -8.5066592453 -36.41811992720001 0 0 1
1560 0 15 0 0 -8.1564 -36.7038 0 0 0
1561 0 15 0 2.0391 -6.1173 -36.7038 0 0 0
1562 0 15 0 2.0391 -8.1564 -34.664699999999996 0 0 0
1563 0 15 0 0 -6.1173 -34.664699999999996 0 0 0
1564 0 15 0 4.0782 -8.1564 -36.7038 0 0 0
1565 0 15 0 6.1173 -6.1173 -36.7038 0 0 0
1566 0 15 0 6.1173 -8.1564 -34.664699999999996 0 0 0
1567 0 15 0 4.0782 -6.1173 -34.664699999999996 0 0 0
1568 0 15 0 8.1564 -8.1564 -36.7038 0 0 0
1569 0 15 0 8.1564 -6.1173 -34.664699999999996 0 0 0
1578 0 15 0 0 -4.0782 -36.7038 0 0 0
1579 0 15 0 2.0391 -2.0391 -36.7038 0 0 0
1580 0 15 0 2.0391 -4.0782 -34.664699999999996 0 0 0
1581 0 15 0 0 -2.0391 -34.664699999999996 0 0 0
1582 0 15 0 4.0782 -4.0782 -36.7038 0 0 0
1583 0 15 0 6.1173 -2.0391 -36.7038 0 0 0
1584 0 15 0 6.1173 -4.0782 -34.664699999999996 0 0 0
1585 0 15 0 4.0782 -2.0391 -34.664699999999996 0 0 0
1586 0 15 0 8.1564 -4.0782 -36.7038 0 0 0
1587 0 15 0 8.1564 -2.0391 -34.664699999999996 0 0 0
1596 0 15 0 0 0 -36.7038 0 0 0
1598 0 15 0 2.0391 0 -34.664699999999996 0 0 0
1600 0 15 0 4.0782 0 -36.7038 0 0 0
1602 0 15 0 6.1173 0 -34.664699999999996 0 0 0
1604 0 15 0 8.1564 0 -36.7038 0 0 0
1641 0 15 0 0 -8.1564 -32.6256 0 0 0
1642 0 15 0 2.0391 -6.1173 -32.6256 0 0 0
1643 0 15 0 2.0391 -8.1564 -30.586499999999997 0 0 0
1644 0 15 0 0 -6.1173 -30.586499999999997 0 0 0
1645 0 15 0 4.0782 -8.1564 -32.6256 0 0 0
1646 0 15 0 6.1173 -6.1173 -32.6256 0 0 0
1647 0 15 0 6.1173 -8.1564 -30.586499999999997 0 0 0
1648 0 15 0 4.0782 -6.1173 -30.586499999999997 0 0 0
1649 0 15 0 8.1564 -8.1564 -32.6256 0 0 0
1650 0 15 0 8.1564 -6.1173 -30.586499999999997 0 0 0
1659 0 15 0 0 -4.0782 -32.6256 0 0 0
1660 0 15 0 2.0391 -2.0391 -32.6256 0 0 0
1661 0 15 0 2.0391 -4.0782 -30.586499999999997 0 0 0
1662 0 15 0 0 -2.0391 -30.586499999999997 0 0 0
1663 0 15 0 4.0782 -4.0782 -32.6256 0 0 0
1664 0 15 0 6.1173 -2.0391 -32.6256 0 0 0
1665 0 15 0 6.1173 -4.0782 -30.586499999999997 0 0 0
1666 0 15 0 4.0782 -2.0391 -30.586499999999997 0 0 0
1667 0 15 0 8.1564 -4.0782 -32.6256 0 0 0
1668 0 15 0 8.1564 -2.0391 -30.586499999999997 0 0 0
1677 0 15 0 0 0 -32.6256 0 0 0
1679 0 15 0 2.0391 0 -30.586499999999997 0 0 0
1681 0 15 0 4.0782 0 -32.6256 0 0 0
1683 0 15 0 6.1173 0 -30.586499999999997 0 0 0
1685 0 15 0 8.1564 0 -32.6256 0 0 0
163 45 12 -0.834 -2.889 2.79 -36.85607326 0 0 1
164 45 4 0.417 -3.3647441224 2.0049288248 -36.58484896200001 0 0 1
1158 376 4 0.417 -3.3982460184 9.1291079602 -36.162403020000006 0 0 1
1589 0 15 0 -6.1173 2.0391 -36.7038 0 0 0
1591 0 15 0 -8.1564 2.0391 -34.664699999999996 0 0 0
1593 0 15 0 -2.0391 2.0391 -36.7038 0 0 0
1595 0 15 0 -4.0782 2.0391 -34.664699999999996 0 0 0
1606 0 15 0 -8.1564 4.0782 -36.7038 0 0 0
1607 0 15 0 -6.1173 6.1173 -36.7038 0 0 0
1608 0 15 0 -6.1173 4.0782 -34.664699999999996 0 0 0
1609 0 15 0 -8.1564 6.1173 -34.664699999999996 0 0 0
1610 0 15 0 -4.0782 4.0782 -36.7038 0 0 0
1611 0 15 0 -2.0391 6.1173 -36.7038 0 0 0
1612 0 15 0 -2.0391 4.0782 -34.664699999999996 0 0 0
1613 0 15 0 -4.0782 6.1173 -34.664699999999996 0 0 0
1624 0 15 0 -8.1564 8.1564 -36.7038 0 0 0
1625 0 15 0 -6.1173 8.1564 -34.664699999999996 0 0 0
1626 0 15 0 -4.0782 8.1564 -36.7038 0 0 0
1627 0 15 0 -2.0391 8.1564 -34.664699999999996 0 0 0
1670 0 15 0 -6.1173 2.0391 -32.6256 0 0 0
1672 0 15 0 -8.1564 2.0391 -30.586499999999997 0 0 0
1674 0 15 0 -2.0391 2.0391 -32.6256 0 0 0
1676 0 15 0 -4.0782 2.0391 -30.586499999999997 0 0 0
1687 0 15 0 -8.1564 4.0782 -32.6256 0 0 0
1688 0 15 0 -6.1173 6.1173 -32.6256 0 0 0
1689 0 15 0 -6.1173 4.0782 -30.586499999999997 0 0 0
1690 0 15 0 -8.1564 6.1173 -30.586499999999997 0 0 0
1691 0 15 0 -4.0782 4.0782 -32.6256 0 0 0
1692 0 15 0 -2.0391 6.1173 -32.6256 0 0 0
1693 0 15 0 -2.0391 4.0782 -30.586499999999997 0 0 0
1694 0 15 0 -4.0782 6.1173 -30.586499999999997 0 0 0
1705 0 15 0 -8.1564 8.1564 -32.6256 0 0 0
1706 0 15 0 -6.1173 8.1564 -30.586499999999997 0 0 0
1707 0 15 0 -4.0782 8.1564 -32.6256 0 0 0
1708 0 15 0 -2.0391 8.1564 -30.586499999999997 0 0 0
929 300 4 0.417 3.2149204888 7.7665872172 -36.38759850380001 0 0 1
1597 0 15 0 2.0391 2.0391 -36.7038 0 0 0
1599 0 15 0 0 2.0391 -34.664699999999996 0 0 0
1601 0 15 0 6.1173 2.0391 -36.7038 0 0 0
1603 0 15 0 4.0782 2.0391 -34.664699999999996 0 0 0
1605 0 15 0 8.1564 2.0391 -34.664699999999996 0 0 0
1614 0 15 0 0 4.0782 -36.7038 0 0 0
1615 0 15 0 2.0391 6.1173 -36.7038 0 0 0
1616 0 15 0 2.0391 4.0782 -34.664699999999996 0 0 0
1617 0 15 0 0 6.1173 -34.664699999999996 0 0 0
1618 0 15 0 4.0782 4.0782 -36.7038 0 0 0
1619 0 15 0 6.1173 6.1173 -36.7038 0 0 0
1620 0 15 0 6.1173 4.0782 -34.664699999999996 0 0 0
1621 0 15 0 4.0782 6.1173 -34.664699999999996 0 0 0
1622 0 15 0 8.1564 4.0782 -36.7038 0 0 0
1623 0 15 0 8.1564 6.1173 -34.664699999999996 0 0 0
1628 0 15 0 0 8.1564 -36.7038 0 0 0
1629 0 15 0 2.0391 8.1564 -34.664699999999996 0 0 0
1630 0 15 0 4.0782 8.1564 -36.7038 0 0 0
1631 0 15 0 6.1173 8.1564 -34.664699999999996 0 0 0
1632 0 15 0 8.1564 8.1564 -36.7038 0 0 0
1678 0 15 0 2.0391 2.0391 -32.6256 0 0 0
1680 0 15 0 0 2.0391 -30.586499999999997 0 0 0
1682 0 15 0 6.1173 2.0391 -32.6256 0 0 0
1684 0 15 0 4.0782 2.0391 -30.586499999999997 0 0 0
1686 0 15 0 8.1564 2.0391 -30.586499999999997 0 0 0
1695 0 15 0 0 4.0782 -32.6256 0 0 0
1696 0 15 0 2.0391 6.1173 -32.6256 0 0 0
1697 0 15 0 2.0391 4.0782 -30.586499999999997 0 0 0
1698 0 15 0 0 6.1173 -30.586499999999997 0 0 0
1699 0 15 0 4.0782 4.0782 -32.6256 0 0 0
1700 0 15 0 6.1173 6.1173 -32.6256 0 0 0
1701 0 15 0 6.1173 4.0782 -30.586499999999997 0 0 0
1702 0 15 0 4.0782 6.1173 -30.586499999999997 0 0 0
1703 0 15 0 8.1564 4.0782 -32.6256 0 0 0
1704 0 15 0 8.1564 6.1173 -30.586499999999997 0 0 0
1709 0 15 0 0 8.1564 -32.6256 0 0 0
1710 0 15 0 2.0391 8.1564 -30.586499999999997 0 0 0
1711 0 15 0 4.0782 8.1564 -32.6256 0 0 0
1712 0 15 0 6.1173 8.1564 -30.586499999999997 0 0 0
1713 0 15 0 8.1564 8.1564 -32.6256 0 0 0
1714 0 15 0 -8.1564 -8.1564 -28.5474 0 0 0
1715 0 15 0 -6.1173 -6.1173 -28.5474 0 0 0
1716 0 15 0 -6.1173 -8.1564 -26.5083 0 0 0
1717 0 15 0 -8.1564 -6.1173 -26.5083 0 0 0
1718 0 15 0 -4.0782 -8.1564 -28.5474 0 0 0
1719 0 15 0 -2.0391 -6.1173 -28.5474 0 0 0
1720 0 15 0 -2.0391 -8.1564 -26.5083 0 0 0
1721 0 15 0 -4.0782 -6.1173 -26.5083 0 0 0
1732 0 15 0 -8.1564 -4.0782 -28.5474 0 0 0
1733 0 15 0 -6.1173 -2.0391 -28.5474 0 0 0
1734 0 15 0 -6.1173 -4.0782 -26.5083 0 0 0
1735 0 15 0 -8.1564 -2.0391 -26.5083 0 0 0
1736 0 15 0 -4.0782 -4.0782 -28.5474 0 0 0
1737 0 15 0 -2.0391 -2.0391 -28.5474 0 0 0
1738 0 15 0 -2.0391 -4.0782 -26.5083 0 0 0
1739 0 15 0 -4.0782 -2.0391 -26.5083 0 0 0
1750 0 15 0 -8.1564 0 -28.5474 0 0 0
1752 0 15 0 -6.1173 0 -26.5083 0 0 0
1754 0 15 0 -4.0782 0 -28.5474 0 0 0
1756 0 15 0 -2.0391 0 -26.5083 0 0 0
1795 0 15 0 -8.1564 -8.1564 -24.4692 0 0 0
1796 0 15 0 -6.1173 -6.1173 -24.4692 0 0 0
1797 0 15 0 -4.0782 -8.1564 -24.4692 0 0 0
1798 0 15 0 -2.0391 -6.1173 -24.4692 0 0 0
1804 0 15 0 -8.1564 -4.0782 -24.4692 0 0 0
1805 0 15 0 -6.1173 -2.0391 -24.4692 0 0 0
1806 0 15 0 -4.0782 -4.0782 -24.4692 0 0 0
1807 0 15 0 -2.0391 -2.0391 -24.4692 0 0 0
1813 0 15 0 -8.1564 0 -24.4692 0 0 0
1815 0 15 0 -4.0782 0 -24.4692 0 0 0
23 1 3 0.46 3.1165270586 -0.4876399211 -22.765634692 0 0 0
1722 0 15 0 0 -8.1564 -28.5474 0 0 0
1723 0 15 0 2.0391 -6.1173 -28.5474 0 0 0
1724 0 15 0 2.0391 -8.1564 -26.5083 0 0 0
1725 0 15 0 0 -6.1173 -26.5083 0 0 0
1726 0 15 0 4.0782 -8.1564 -28.5474 0 0 0
1727 0 15 0 6.1173 -6.1173 -28.5474 0 0 0
1728 0 15 0 6.1173 -8.1564 -26.5083 0 0 0
1729 0 15 0 4.0782 -6.1173 -26.5083 0 0 0
1730 0 15 0 8.1564 -8.1564 -28.5474 0 0 0
1731 0 15 0 8.1564 -6.1173 -26.5083 0 0 0
1740 0 15 0 0 -4.0782 -28.5474 0 0 0
1741 0 15 0 2.0391 -2.0391 -28.5474 0 0 0
1742 0 15 0 2.0391 -4.0782 -26.5083 0 0 0
1743 0 15 0 0 -2.0391 -26.5083 0 0 0
1744 0 15 0 4.0782 -4.0782 -28.5474 0 0 0
1745 0 15 0 6.1173 -2.0391 -28.5474 0 0 0
1746 0 15 0 6.1173 -4.0782 -26.5083 0 0 0
1747 0 15 0 4.0782 -2.0391 -26.5083 0 0 0
1748 0 15 0 8.1564 -4.0782 -28.5474 0 0 0
1749 0 15 0 8.1564 -2.0391 -26.5083 0 0 0
1758 0 15 0 0 0 -28.5474 0 0 0
1760 0 15 0 2.0391 0 -26.5083 0 0 0
1762 0 15 0 4.0782 0 -28.5474 0 0 0
1764 0 15 0 6.1173 0 -26.5083 0 0 0
1766 0 15 0 8.1564 0 -28.5474 0 0 0
1799 0 15 0 0 -8.1564 -24.4692 0 0 0
1800 0 15 0 2.0391 -6.1173 -24.4692 0 0 0
1801 0 15 0 4.0782 -8.1564 -24.4692 0 0 0
1802 0 15 0 6.1173 -6.1173 -24.4692 0 0 0
1803 0 15 0 8.1564 -8.1564 -24.4692 0 0 0
1808 0 15 0 0 -4.0782 -24.4692 0 0 0
1809 0 15 0 2.0391 -2.0391 -24.4692 0 0 0
1810 0 15 0 4.0782 -4.0782 -24.4692 0 0 0
1811 0 15 0 6.1173 -2.0391 -24.4692 0 0 0
1812 0 15 0 8.1564 -4.0782 -24.4692 0 0 0
1817 0 15 0 0 0 -24.4692 0 0 0
1819 0 15 0 4.0782 0 -24.4692 0 0 0
1821 0 15 0 8.1564 0 -24.4692 0 0 0
1751 0 15 0 -6.1173 2.0391 -28.5474 0 0 0
1753 0 15 0 -8.1564 2.0391 -26.5083 0 0 0
1755 0 15 0 -2.0391 2.0391 -28.5474 0 0 0
1757 0 15 0 -4.0782 2.0391 -26.5083 0 0 0
1768 0 15 0 -8.1564 4.0782 -28.5474 0 0 0
1769 0 15 0 -6.1173 6.1173 -28.5474 0 0 0
1770 0 15 0 -6.1173 4.0782 -26.5083 0 0 0
1771 0 15 0 -8.1564 6.1173 -26.5083 0 0 0
1772 0 15 0 -4.0782 4.0782 -28.5474 0 0 0
1773 0 15 0 -2.0391 6.1173 -28.5474 0 0 0
1774 0 15 0 -2.0391 4.0782 -26.5083 0 0 0
1775 0 15 0 -4.0782 6.1173 -26.5083 0 0 0
1786 0 15 0 -8.1564 8.1564 -28.5474 0 0 0
1787 0 15 0 -6.1173 8.1564 -26.5083 0 0 0
1788 0 15 0 -4.0782 8.1564 -28.5474 0 0 0
1789 0 15 0 -2.0391 8.1564 -26.5083 0 0 0
1814 0 15 0 -6.1173 2.0391 -24.4692 0 0 0
1816 0 15 0 -2.0391 2.0391 -24.4692 0 0 0
1822 0 15 0 -8.1564 4.0782 -24.4692 0 0 0
1823 0 15 0 -6.1173 6.1173 -24.4692 0 0 0
1824 0 15 0 -4.0782 4.0782 -24.4692 0 0 0
1825 0 15 0 -2.0391 6.1173 -24.4692 0 0 0
1831 0 15 0 -8.1564 8.1564 -24.4692 0 0 0
1832 0 15 0 -4.0782 8.1564 -24.4692 0 0 0
1759 0 15 0 2.0391 2.0391 -28.5474 0 0 0
1761 0 15 0 0 2.0391 -26.5083 0 0 0
1763 0 15 0 6.1173 2.0391 -28.5474 0 0 0
1765 0 15 0 4.0782 2.0391 -26.5083 0 0 0
1767 0 15 0 8.1564 2.0391 -26.5083 0 0 0
1776 0 15 0 0 4.0782 -28.5474 0 0 0
1777 0 15 0 2.0391 6.1173 -28.5474 0 0 0
1778 0 15 0 2.0391 4.0782 -26.5083 0 0 0
1779 0 15 0 0 6.1173 -26.5083 0 0 0
1780 0 15 0 4.0782 4.0782 -28.5474 0 0 0
1781 0 15 0 6.1173 6.1173 -28.5474 0 0 0
1782 0 15 0 6.1173 4.0782 -26.5083 0 0 0
1783 0 15 0 4.0782 6.1173 -26.5083 0 0 0
1784 0 15 0 8.1564 4.0782 -28.5474 0 0 0
1785 0 15 0 8.1564 6.1173 -26.5083 0 0 0
1790 0 15 0 0 8.1564 -28.5474 0 0 0
1791 0 15 0 2.0391 8.1564 -26.5083 0 0 0
1792 0 15 0 4.0782 8.1564 -28.5474 0 0 0
1793 0 15 0 6.1173 8.1564 -26.5083 0 0 0
1794 0 15 0 8.1564 8.1564 -28.5474 0 0 0
1818 0 15 0 2.0391 2.0391 -24.4692 0 0 0
1820 0 15 0 6.1173 2.0391 -24.4692 0 0 0
1826 0 15 0 0 4.0782 -24.4692 0 0 0
1827 0 15 0 2.0391 6.1173 -24.4692 0 0 0
1828 0 15 0 4.0782 4.0782 -24.4692 0 0 0
1829 0 15 0 6.1173 6.1173 -24.4692 0 0 0
1830 0 15 0 8.1564 4.0782 -24.4692 0 0 0
1833 0 15 0 0 8.1564 -24.4692 0 0 0
1834 0 15 0 4.0782 8.1564 -24.4692 0 0 0
1835 0 15 0 8.1564 8.1564 -24.4692 0 0 0
1 1 10 -0.3 -2.874 -0.28 -19.17 0 0 0
2 1 3 0.33 -3.9076868761 -0.2327329134 -19.0658018004 0 0 0
3 1 3 0.33 -2.4320567076 -0.3164652733 -18.2292789753 0 0 0
4 1 3 0.33 -2.6182817274 -1.1338021527 -19.7059381355 0 0 0
10 1 8 -0.18 -0.66 -0.373 -21.307 0 0 0
11 1 1 0.09 -1.2901105257 -0.2132607294 -22.2075703265 0 0 0
12 1 1 0.09 -0.9398656401 -1.3408548703 -20.8395441243 0 0 0
30 1 13 1 -10.066999999999998 -9.951003580199998 -20.766 1 1 0
115 29 12 -0.834 -8.475 -7.624 -17.194 0 0 0
116 29 4 0.417 -8.1726036841 -8.4124718037 -17.6446667537 0 0 0
117 29 4 0.417 -9.2274848855 -7.9154997124 -16.6791929927 0 0 0
160 44 12 -0.834 -4.861 -7.169 -20.088 0 0 0
161 44 4 0.417 -4.5220448852 -6.4809821314 -19.5153110071 0 0 0
162 44 4 0.417 -5.7442133875 -7.3399602629 -19.7609854121 0 0 0
493 155 12 -0.834 -5.617 -9.705 -18.774 0 0 0
494 155 4 0.417 -5.1457943252 -8.9185270918 -19.0490589331 0 0 0
495 155 4 0.417 -6.4420863614 -9.6720604567 -19.2581273827 0 0 0
919 297 12 -0.834 -7.749 -9.011 -20.442 0 0 0
920 297 4 0.417 -7.9153092695 -9.8561282748 -20.8595299582 0 0 0
921 297 4 0.417 -8.3967675397 -8.4211794865 -20.8276693097 0 0 0
937 303 12 -0.834 -3.186 -3.8 -20.385 0 0 0
938 303 4 0.417 -3.5313789926 -4.6710251941 -20.58060241 0 0 0
939 303 4 0.417 -3.4125056789 -3.6526676472 -19.4667297809 0 0 0
1030 334 12 -0.834 -9.472 -2.9 -17.184 0 0 0
1032 334 4 0.417 -9.2484622258 -3.4555269009 -16.4372386152 0 0 0
1045 339 12 -0.834 -7.507 -4.537 -16.64 0 0 0
1046 339 4 0.417 -8.2789511102 -4.0582427629 -16.9418523337 0 0 0
1047 339 4 0.417 -7.5413721752 -5.369406627 -17.111327488 0 0 0
1144 372 12 -0.834 -0.292 -8.189 -20.021 0 0 0
1145 372 4 0.417 -1.228817136 -8.2073718626 -20.2166220038 0 0 0
1146 372 4 0.417 -0.1877880628 -7.4557163218 -19.4146446921 0 0 0
1330 434 12 -0.834 -6.66 -2.665 -19.26 0 0 0
1331 434 4 0.417 -7.4630951765 -2.6670400212 -18.7391681502 0 0 0
1332 434 4 0.417 -6.1140074513 -3.342920356 -18.8618191772 0 0 0
1357 443 12 -0.834 -9.941 -9.087 -16.432 0 0 0
1387 453 12 -0.834 -6.447 -6.599 -18.517 0 0 0
1388 453 4 0.417 -7.1057793271 -6.3620495396 -17.864239617 0 0 0
1389 453 4 0.417 -6.8633233517 -7.2837068639 -19.0405295764 0 0 0
1435 469 12 -0.834 -3.847 -6.306 -15.805 0 0 0
1436 469 4 0.417 -3.9101500712 -7.1852453042 -15.4319428951 0 0 0
1447 473 12 -0.834 -4.624 -5.385 -18.226 0 0 0
1448 473 4 0.417 -5.10115519 -6.0622629078 -18.7054473051 0 0 0
1449 473 4 0.417 -5.2333928749 -5.0978826234 -17.5459736946 0 0 0
13 1 8 0.2 0.805 -0.436 -21.734 0 0 0
15 1 1 0.09 0.9547115417 -1.2721564249 -22.4499537828 0 0 0
16 1 9 -0.7 1.666 -0.664 -20.598 0 0 0
17 1 3 0.44 1.2490559009 -0.7534518035 -19.6938602686 0 0 0
18 1 5 0.64 3.064 -0.766 -20.705 0 0 0
19 1 9 -0.8 3.854 -0.986 -19.582 0 0 0
20 1 3 0.46 4.77999672 -1.349089654 -19.6854213598 0 0 0
21 1 3 0.46 3.4961238523 -0.7811211383 -18.6709844596 0 0 0
22 1 9 -0.8 3.673 -0.646 -21.95 0 0 0
24 1 3 0.46 4.6672393879 -0.7181006806 -22.0293065656 0 0 0
83 18 4 0.417 4.1437617456 -9.798314328299998 -15.3297392923 0 1 0
385 119 12 -0.834 9.325 -0.635 -18.563 0 0 0
387 119 4 0.417 8.8097874073 -0.5868648184 -17.7577231354 0 0 0
517 163 12 -0.834 5.908 -9.511 -15.671 0 0 0
601 191 12 -0.834 8.913 -7.703 -16.224 0 0 0
602 191 4 0.417 8.7482878883 -7.6326094813 -15.2837091221 0 0 0
603 191 4 0.417 8.8388025654 -8.6387695955 -16.4112480835 0 0 0
709 227 12 -0.834 9.249 -5.583 -16.713 0 0 0
710 227 4 0.417 8.5515756521 -6.2383329365 -16.7322317804 0 0 0
711 227 4 0.417 10.0084455638 -6.0508808503 -16.3657799177 0 0 0
871 281 12 -0.834 7.722 -3.618 -17.694 0 0 0
872 281 4 0.417 8.4953087404 -3.060697568 -17.7814038406 0 0 0
873 281 4 0.417 8.0570860007 -4.4384217542 -17.3322578855 0 0 0
1031 334 4 0.417 9.896095980699998 -2.4759309634 -16.9307122362 -1 0 0
1168 380 12 -0.834 5.474 -3.712 -20.728 0 0 0
1169 380 4 0.417 5.03843871 -4.3633055848 -20.1781643537 0 0 0
1170 380 4 0.417 6.2175357302 -3.4141155947 -20.2039281166 0 0 0
1189 387 12 -0.834 2.037 -7.422 -18.958 0 0 0
1190 387 4 0.417 2.5995366917 -7.8658465736 -18.3233469218 0 0 0
1191 387 4 0.417 1.2987767613 -8.0184091473 -19.0827173561 0 0 0
1358 443 4 0.417 9.777234563099999 -9.8707890585 -16.7170034843 -1 0 0
1359 443 4 0.417 9.9491080468 -8.9419152508 -15.5339784859 -1 0 0
1468 480 12 -0.834 9.193 -9.748 -19.038 0 0 0
1469 480 4 0.417 8.393576784 -9.9611570563 -18.5566285935 0 0 0
1470 480 4 0.417 9.595985355 -9.0416145212 -18.5331691382 0 0 0
1486 486 12 -0.834 3.665 -8.702 -17.124 0 0 0
1487 486 4 0.417 3.1446165065 -9.2953926103 -16.582411531 0 0 0
1488 486 4 0.417 4.5591560234 -8.800427527 -16.7968473328 0 0 0
5 1 7 0.21 -2.401 0.904 -19.885 0 0 0
6 1 2 0.1 -2.5204294238 1.7515075666 -19.2265543756 0 0 0
7 1 8 -0.18 -0.93 0.76 -20.304 0 0 0
8 1 1 0.09 -0.3245463211 0.5708956709 -19.3927057939 0 0 0
9 1 1 0.09 -0.6024040623 1.7169041703 -20.7620469902 0 0 0
25 1 6 0.34 -3.312 1.131 -21.078 0 0 0
26 1 11 -0.67 -4.2644802237 0.3257228322 -21.2566340017 0 0 0
27 1 11 -0.67 -3.0694588867 2.113177473 -21.8290667213 0 0 0
40 4 12 -0.834 -3.154 7.962 -19.474 0 0 0
41 4 4 0.417 -2.3969548367 8.1213744254 -20.0376614705 0 0 0
42 4 4 0.417 -2.7799249842 7.6295931542 -18.6580309985 0 0 0
64 12 12 -0.834 -6.936 4.201 -16.355 0 0 0
65 12 4 0.417 -7.2360778802 3.3131116735 -16.1604764141 0 0 0
66 12 4 0.417 -6.1659386451 4.3212082259 -15.7993136387 0 0 0
124 32 12 -0.834 -5.52 7.67 -18.261 0 0 0
125 32 4 0.417 -6.1822934263 7.0852206234 -18.6292829594 0 0 0
126 32 4 0.417 -4.7791699028 7.6032045248 -18.8634458246 0 0 0
373 115 12 -0.834 -1.676 6.936 -17.015 0 0 0
374 115 4 0.417 -1.0328540314 6.3472625397 -16.6200527809 0 0 0
375 115 4 0.417 -2.0166591046 7.4467116554 -16.2805908364 0 0 0
508 160 12 -0.834 -8.933 7.458 -15.277 0 0 0
510 160 4 0.417 -8.9925196287 6.7213595123 -15.8853173889 0 0 0
616 196 12 -0.834 -9.016 5.059 -18.434 0 0 0
617 196 4 0.417 -9.4275951005 4.195165704 -18.4092689992 0 0 0
618 196 4 0.417 -8.2921405751 4.9978702037 -17.8106842526 0 0 0
895 289 12 -0.834 -8.521 7.748 -19.16 0 0 0
896 289 4 0.417 -7.5985692016 7.8193399695 -18.9145129924 0 0 0
897 289 4 0.417 -8.7594562035 6.8479096662 -18.9381715302 0 0 0
1210 394 12 -0.834 -7.386 1.85 -15.565 0 0 0
1212 394 4 0.417 -7.9821132954 1.1025830562 -15.6124203665 0 0 0
1276 416 12 -0.834 -9.685 1.813 -17.063 0 0 0
1277 416 4 0.417 -9.9832574525 1.0384875088 -16.5861302767 0 0 0
1278 416 4 0.417 -8.8339311146 2.019677755 -16.6767385627 0 0 0
1426 466 12 -0.834 -3.992 9.379 -16.905 0 0 0
1427 466 4 0.417 -3.8089481347 8.8956938606 -17.7106916471 0 0 0
1428 466 4 0.417 -4.8805284504 9.1166202019 -16.6643636056 0 0 0
14 1 1 0.09 1.1041964663 0.5259094218 -22.202372363 0 0 0
289 87 12 -0.834 7.789 5.224 -16.294 0 0 0
290 87 4 0.417 7.5080825641 6.1388456491 -16.274643539 0 0 0
291 87 4 0.417 7.0085174615 4.7280140267 -16.0468628693 0 0 0
349 107 12 -0.834 6.693 4.593 -20.505 0 0 0
350 107 4 0.417 6.7315474467 3.9662634938 -19.7825408066 0 0 0
351 107 4 0.417 5.8288032462 4.9969989461 -20.4263828118 0 0 0
386 119 4 0.417 9.2967063436 0.2529088012 -18.919439714 0 0 0
448 140 12 -0.834 7.7 2.908 -16.122 0 0 0
449 140 4 0.417 7.7701560253 3.834029242 -16.3539047543 0 0 0
733 235 12 -0.834 5.166 6.928 -15.678 0 0 0
734 235 4 0.417 4.2450395237 7.032890486 -15.4391242437 0 0 0
735 235 4 0.417 5.5011611287 7.8224422212 -15.7402251613 0 0 0
814 262 12 -0.834 4.173 5.321 -19.739 0 0 0
815 262 4 0.417 3.290744681 4.9548144474 -19.6776360605 0 0 0
816 262 4 0.417 4.0826295344 6.2193271524 -19.4210796543 0 0 0
1042 338 12 -0.834 9.064 8.484 -19.631 0 0 0
1043 338 4 0.417 9.2252106661 8.4029607057 -18.6909597913 0 0 0
1044 338 4 0.417 8.1113578859 8.4442761617 -19.7154207271 0 0 0
1159 377 12 -0.834 2.476 4.886 -16.51 0 0 0
1160 377 4 0.417 3.4256580616 4.9958827532 -16.5580331815 0 0 0
1161 377 4 0.417 2.1681173203 5.6614209468 -16.0407852827 0 0 0
1204 392 12 -0.834 9.199 8.151 -16.047 0 0 0
1205 392 4 0.417 8.7854602205 7.3208381185 -16.283744464 0 0 0
1381 451 12 -0.834 8.954 2.38 -19.332 0 0 0
1382 451 4 0.417 9.3108789209 3.2642927469 -19.4150398307 0 0 0
1383 451 4 0.417 8.0467176522 2.4587051671 -19.6267474819 0 0 0
1417 463 12 -0.834 5.524 8.251 -19.044 0 0 0
1418 463 4 0.417 5.4489482352 7.3390437134 -19.3249533841 0 0 0
1419 463 4 0.417 4.6334314623 8.5000312201 -18.7968098485 0 0 0
1513 495 12 -0.834 7.751 0.626 -16.607 0 0 0
1514 495 4 0.417 8.0589923066 1.5164369297 -16.775803594 0 0 0
1515 495 4 0.417 7.1168575646 0.7220617964 -15.8964598232 0 0 0
154 42 12 -0.834 -9.32 -1.833 -9.263 0 0 0
155 42 4 0.417 -9.3564555099 -1.508886835 -8.363081397 0 0 0
156 42 4 0.417 -8.6904226279 -2.5534040798 -9.2332992532 0 0 0
217 63 12 -0.834 -6.468 -6.361 -11.671 0 0 0
218 63 4 0.417 -6.1010494836 -7.2215417425 -11.4683992402 0 0 0
219 63 4 0.417 -5.8032715835 -5.7403192545 -11.372464601 0 0 0
223 65 12 -0.834 -8.612 -6.218 -14.531 0 0 0
224 65 4 0.417 -8.879377677 -6.8803382081 -13.8937801667 0 0 0
225 65 4 0.417 -7.9546973471 -6.6563934425 -15.0713667755 0 0 0
295 89 12 -0.834 -7.678 -8.296 -8.236 0 0 0
598 190 12 -0.834 -9.557 -2.476 -12.193 0 0 0
599 190 4 0.417 -9.1963384778 -1.8237053626 -11.5924445801 0 0 0
640 204 12 -0.834 -8.036 -9.364 -10.308 0 0 0
641 204 4 0.417 -7.5762657322 -8.9650810952 -9.5692578594 0 0 0
642 204 4 0.417 -8.9627644324 -9.2981271413 -10.0777820743 0 0 0
667 213 12 -0.834 -2.364 -2.695 -11.534 0 0 0
668 213 4 0.417 -1.4618240995 -2.6956378055 -11.2141405344 0 0 0
669 213 4 0.417 -2.7561642609 -3.4780407155 -11.1476241852 0 0 0
682 218 12 -0.834 -1.786 -5.977 -8.678 0 0 0
683 218 4 0.417 -2.6400363612 -6.3531241219 -8.4649639028 0 0 0
687 219 4 0.417 -0.3232988823 -5.3138579264 -8.8216503153 0 0 0
817 263 12 -0.834 -4.018 -5.05 -10.54 0 0 0
818 263 4 0.417 -4.7808696708 -5.5021254505 -10.1796608786 0 0 0
819 263 4 0.417 -3.4998108495 -4.805224149 -9.7733210404 0 0 0
967 313 12 -0.834 -7.014 -1.543 -11.947 0 0 0
968 313 4 0.417 -7.2573324795 -0.6950224105 -11.5755768557 0 0 0
969 313 4 0.417 -7.8478184599 -1.9915171014 -12.0877516455 0 0 0
1093 355 12 -0.834 -5.484 -3.793 -14.777 0 0 0