1835
Atoms. Timestep: 10
N -2.874 -0.28 -19.17
H -3.90769 -0.232733 -19.0658
H -2.43206 -0.316465 -18.2293
H -2.61828 -1.1338 -19.7059
C -2.401 0.904 -19.885
H -2.52043 1.75151 -19.2266
C -0.93 0.76 -20.304
H -0.324546 0.570896 -19.3927
H -0.602404 1.7169 -20.762
C -0.66 -0.373 -21.307
H -1.29011 -0.213261 -22.2076
H -0.939866 -1.34085 -20.8395
C 0.805 -0.436 -21.734
H 1.1042 0.525909 -22.2024
H 0.954712 -1.27216 -22.45
N 1.666 -0.664 -20.598
H 1.24906 -0.753452 -19.6939
C 3.064 -0.766 -20.705
N 3.854 -0.986 -19.582
H 4.78 -1.34909 -19.6854
H 3.49612 -0.781121 -18.671
N 3.673 -0.646 -21.95
H 3.11653 -0.48764 -22.7656
H 4.66724 -0.718101 -22.0293
C -3.312 1.131 -21.078
O -4.26448 0.325723 -21.2566
O -3.06946 2.11318 -21.8291
Cl -6.001 7.458 -14.28
Cl -7.382 7.074 11.128
Na -10.067 -9.951 -20.766
O -7.789 -1.522 12.074
H -8.14548 -2.02417 12.8068
H -8.2168 -1.88948 11.3006
O 7.983 0.14 8.586
H 7.71297 -0.593374 9.1387
H 8.58972 -0.246197 7.95436
O -2.507 3.273 -6.99
H -1.62233 2.9207 -6.89268
H -3.07187 2.62131 -6.57472
O -3.154 7.962 -19.474
H -2.39695 8.12137 -20.0377
H -2.77992 7.62959 -18.658
O 6.66 -1.305 -3.086
H 7.07055 -0.869048 -2.33926
H 6.12869 -1.99926 -2.6962
O -1.163 6.169 7
H -0.772537 5.44392 7.48789
H -1.35916 5.80056 6.1386
O -7.744 2.874 3.342
H -7.79846 2.91197 2.38711
H -6.82685 3.06558 3.53788
O 4.89 -8.903 -13.195
H 4.65333 -8.34714 -12.4525
H 4.61061 -9.78113 -12.936
O 1.473 -1.97 17.47
H 1.16512 -2.87628 17.4796
H 2.104 -1.9385 16.7509
O -0.537 -2.82 14.617
H -0.459448 -3.34221 15.4154
H -0.281813 -3.41727 13.9139
O -6.395 9.039 9.383
H -6.25829 8.54532 10.1916
H -5.96492 8.51568 8.70669
O -6.936 4.201 -16.355
H -7.23608 3.31311 -16.1605
H -6.16594 4.32121 -15.7993
O -5.019 -5.495 2.42
H -4.0687 -5.58197 2.34515
H -5.3659 -6.02895 1.7053
O -8.316 8.758 -7.719
H -7.44347 8.37946 -7.61113
H -8.85318 8.31356 -7.06314
O -8.837 -7.83 20.356
H -9.29511 -7.27469 -36.6142
H -8.28024 -8.39409 -36.7084
O 0.272 -1.648 -0.662
H -0.16583 -2.43572 -0.339467
H 1.08734 -1.605 -0.162394
O -0.976 2.215 8.437
H -1.43542 1.39556 8.25345
H -0.780067 2.57888 7.57361
O 3.564 9.431 -15.201
H 4.14376 -9.79831 -15.3297
H 3.94983 8.9529 -14.467
O -4.806 -0.313 2.521
H -4.5008 -1.22022 2.52779
H -5.09428 -0.163513 1.62057
O -9.71 7.342 -5.737
H -10.0389 6.78486 -5.03157
H -8.78288 7.11523 -5.80944
O 3.549 -7.662 7.895
H 3.80131 -8.22632 8.62583
H 4.35927 -7.21911 7.64292
O -2.449 -6.099 8.987
H -2.31379 -6.76269 9.66337
H -2.97937 -6.53838 8.32226
O -2.618 4.924 8.295
H -1.87947 5.37508 8.70408
H -2.54249 5.13504 7.36441
O -3.268 -9.448 -1.153
H -3.07914 9.62189 -1.38159
H -3.22647 -9.42711 -0.196929
O -4.287 -7.861 3.774
H -4.99526 -8.40726 3.43312
H -3.76733 -8.45336 4.3174
O -3.493 -3.607 12.764
H -3.52465 -4.09213 11.9395
H -3.05479 -4.19981 13.3746
O -2.067 -6.637 19.785
H -2.31539 -5.89461 19.2342
H -2.81327 -7.23423 19.7336
O 2.796 6.538 12.784
H 3.22521 6.30019 13.6059
H 3.51052 6.82025 12.213
O -8.475 -7.624 -17.194
H -8.1726 -8.41247 -17.6447
H -9.22748 -7.9155 -16.6792
O 4.194 4.662 -6.962
H 4.39473 5.59476 -7.03881
H 4.96702 4.28389 -6.54283
O -3.758 0.874 18.143
H -3.33592 1.16496 18.9513
H -4.071 -0.00886009 18.34
O -5.52 7.67 -18.261
H -6.18229 7.08522 -18.6293
H -4.77917 7.6032 -18.8634
O -0.224 8.106 -0.89
H 0.247815 7.68626 -1.60933
H -0.0224802 7.56787 -0.124468
O -9.563 -3.424 8.929
H -8.89288 -3.79745 9.50146
H -9.08565 -3.15588 8.14384
O -6.174 7.637 12.876
H -5.42173 7.60428 12.285
H -5.9103 7.10901 13.6296
O -3.342 1.397 12.125
H -2.56165 1.67536 11.6456
H -3.11376 1.51896 13.0466
O 2.162 8.515 3.203
H 2.16793 8.69495 2.26289
H 1.96921 7.57961 3.26708
O 4.692 -4.514 13.315
H 4.99682 -5.0001 14.0812
H 5.05942 -4.98745 12.5686
O -8.237 0.902 -7.253
H -8.57354 0.0145426 -7.12894
H -7.59397 1.01485 -6.55299
O -9.457 2.402 17.104
H -8.78067 1.72477 17.0906
H -9.35343 2.82784 17.955
O -3.58 9.586 6.07
H -3.82672 9.12568 5.26784
H -3.10345 8.93406 6.58391
O -9.32 -1.833 -9.263
H -9.35646 -1.50889 -8.36308
H -8.69042 -2.5534 -9.2333
O 4.279 6.686 1.972
H 4.87052 7.43827 1.99259
H 3.84586 6.74452 1.12041
O -4.861 -7.169 -20.088
H -4.52204 -6.48098 -19.5153
H -5.74421 -7.33996 -19.761
O -2.889 2.79 -36.8561
H -3.36474 2.00493 -36.5848
H -2.84144 2.72429 19.7912
O -1.699 2.818 -9.805
H -1.08629 2.10652 -9.61896
H -1.51058 3.47768 -9.1375
O 0.792 0.321 -3.032
H 1.48764 0.856014 -2.64979
H 1.24585 -0.44043 -3.39321
O -8.057 -3.765 -3.578
H -8.93532 -3.86657 -3.2113
H -7.65131 -3.08228 -3.04364
O -1.915 0.552 7.287
H -2.32658 -0.138483 6.76732
H -1.60306 0.106085 8.07445
O -2.704 1.39 5.413
H -3.35008 1.03328 4.80344
H -2.63286 0.728755 6.10142
O 9.397 8.897 16.651
H -9.96333 9.13806 16.235
H 9.29991 7.96239 16.4685
O 8.365 -9.206 1.577
H 9.30043 -9.40713 1.60441
H 8.19572 -8.73965 2.39559
O 2.376 -2.508 7.285
H 2.14531 -2.96536 6.4764
H 3.15652 -2.96173 7.60305
O 5.415 8.668 1.274
H 6.10854 9.23692 0.939984
H 5.7973 7.79056 1.26102
O 7.954 0.462 -4.829
H 7.27082 -0.0961589 -4.45758
H 8.68987 0.376172 -4.2229
O -5.445 3.287 5.118
H -5.35724 3.57054 4.20798
H -4.95253 2.46741 5.16255
O -2.32 -3.864 7.758
H -2.72821 -4.72111 7.88029
H -1.55136 -4.03951 7.21522
O 5.289 5.355 19.556
H 5.60769 4.90802 18.7719
H 5.70531 4.89122 20.2825
O 0.869 -4.985 -11.409
H 1.08591 -5.89342 -11.1993
H 0.607696 -4.60133 -10.5719
O 4.342 0.756 4.126
H 5.2828 0.9322 4.11672
H 4.18824 0.231845 3.33996
O -0.144 4.985 17.625
H 0.301604 4.63149 18.3949
H 0.49855 5.56974 17.2232
O -9.957 -3.423 -2.163
H 9.27648 -3.37483 -2.21597
H -9.76078 -3.28467 -1.2364
O -6.468 -6.361 -11.671
H -6.10105 -7.22154 -11.4684
H -5.80327 -5.74032 -11.3725
O 6.35 9.472 12.003
H 7.22669 9.85492 11.9712
H 6.34164 8.83216 11.2911
O -8.612 -6.218 -14.531
H -8.87938 -6.88034 -13.8938
H -7.9547 -6.65639 -15.0714
O 6.499 -7.227 18.22
H 6.90909 -7.5197 17.4061
H 6.78094 -7.86631 18.8742
O 7.82 -2.111 -7.359
H 7.54241 -2.92158 -6.93222
H 8.63671 -1.87552 -6.91881
O -0.139 7.939 18.996
H 0.463944 8.34207 19.6207
H -0.028144 6.99755 19.1287
O -9.433 -8.411 4.47
H -9.76159 -8.95958 3.75773
H -8.58529 -8.7937 4.69619
O -6.648 7.283 2.407
H -5.80568 7.30869 1.95305
H -7.12438 6.56594 1.98852
O -5.817 -0.08 -5.136
H -5.08933 -0.128326 -4.51601
H -6.4085 -0.782882 -4.86707
O 1.662 -5.594 -4.183
H 2.33573 -5.95075 -3.60417
H 0.841257 -5.95314 -3.8459
O 0.961 9.507 20.121
H 1.43501 -9.79733 20.6058
H 1.46715 8.70767 20.2663
O 8.176 -3.788 -5.763
H 8.21166 -4.56148 -5.20025
H 8.78232 -3.16811 -5.35761
O 6.566 -7.246 -10.372
H 6.32969 -6.55208 -9.75648
H 6.1828 -8.03937 -9.9979
O -5.436 1.424 -8.355
H -4.82374 0.727867 -8.59326
H -5.06156 1.81275 -7.5645
O 10.061 -5.561 3.508
H -9.72023 -6.06352 2.80213
H -9.63086 -4.74293 3.53695
O 1.905 -0.66 8.995
H 1.94364 -1.57404 9.27654
H 2.07046 -0.691918 8.05275
O 1.279 4.93 10.749
H 1.64812 4.71635 9.89206
H 1.45714 4.15808 11.2863
O -5.019 4.099 -2.067
H -5.17497 4.3436 -1.15482
H -4.0859 3.8886 -2.10287
O -6.361 -3.917 14.328
H -6.30592 -4.69357 14.8849
H -6.16794 -4.23894 13.4475
O -9.128 3.187 -10.213
H -8.88521 3.69016 -9.43575
H -8.43574 3.37529 -10.8467
O 5.022 2.847 -8.604
H 4.70942 3.56755 -8.05688
H 5.15739 2.12286 -7.99283
O 4.305 3.486 10.951
H 5.05289 4.00707 11.2432
H 4.32126 2.70869 11.5094
O -4.196 -0.332 4.802
H -4.82234 -1.03849 4.64453
H -3.86011 -0.111026 3.93334
O 5.581 -6.75 10.892
H 6.33391 -6.66361 11.4767
H 5.96432 -6.86157 10.022
O 7.789 5.224 -16.294
H 7.50808 6.13885 -16.2746
H 7.00852 4.72801 -16.0469
O 4.606 5.543 6.536
H 4.82091 4.61419 6.45026
H 4.64838 5.88265 5.64209
O -7.678 -8.296 -8.236
H -7.05246 -8.29209 -7.51149
H -8.33769 -7.64867 -7.98698
O 9.271 9.183 -1.88
H 9.49035 -9.91733 -1.57295
H 9.61239 9.14864 -2.77359
O 5.564 9.282 -13.349
H 6.36756 9.23052 -12.8314
H 4.86041 9.28627 -12.7
O 1.912 5.159 8.433
H 1.9657 4.98326 7.4936
H 2.46678 5.92771 8.56544
O -4.029 -8.096 -3.614
H -3.99633 -7.69918 -2.74354
H -3.49778 -8.88849 -3.53657
O 1.291 -2.277 -12.88
H 0.86674 -1.6834 -12.2604
H 1.1973 -3.14367 -12.4846
O 1.135 -4.738 19.387
H 0.923577 -5.42534 20.0187
H 1.78563 -5.13569 18.8084
O 1.623 2.357 3.589
H 1.392 1.44939 3.39122
H 1.66821 2.78491 2.73397
O 9.591 -6.034 15.04
H -9.84122 -6.31451 15.5561
H 8.89503 -6.64497 15.282
O 4.268 0.614 -10.696
H 3.82592 1.11769 -10.0126
H 4.84643 0.018721 -10.2192
O 8.688 -4.667 13.572
H 8.73245 -5.55233 13.2108
H 9.06598 -4.74587 14.4479
O 6.46 1.298 10.115
H 7.02476 1.48127 9.36421
H 6.56329 0.359006 10.2694
O -1.093 2.36 3.912
H -1.28503 1.54605 3.44633
H -0.447635 2.80446 3.36228
O 8.217 6.211 14.084
H 7.87592 5.34969 14.3249
H 8.93365 6.36603 14.6993
O 1.161 9.988 11.69
H 1.71106 9.92162 12.4705
H 1.4524 9.2691 11.1292
O 6.512 -4.391 -3.25
H 6.69084 -5.3011 -3.01342
H 7.08728 -3.87801 -2.68244
O 4.138 5.35 -11.072
H 4.93098 5.88265 -11.1329
H 3.76043 5.57799 -10.2225
O -4.513 8.023 0.46
H -5.07469 8.07969 -0.312999
H -3.6372 8.23367 0.13624
O 6.693 4.593 -20.505
H 6.73155 3.96626 -19.7825
H 5.8288 4.997 -20.4264
O 7.735 4.717 17.142
H 8.62394 4.77176 16.7913
H 7.804 4.10727 17.8766
O -3.683 -2.919 -5.876
H -3.21564 -2.55783 -5.12276
H -4.14852 -3.67933 -5.52756
O -3.171 -5.947 15.894
H -2.22767 -5.78679 15.9204
H -3.28266 -6.61136 15.214
O 0.337 1.523 -8.444
H -0.124348 1.30358 -7.63453
H 1.21984 1.17487 -8.31899
O 9.166 3.916 1.106
H -10.0827 4.0109 1.26412
H 9.09585 3.75843 0.164469
O -0.51 -4.444 3.794
H -1.22052 -4.58998 3.16943
H 0.12283 -3.90757 3.3165
O -0.025 -3.614 0.663
H 0.68361 -3.96223 0.121852
H -0.748665 -4.22721 0.534488
O -1.676 6.936 -17.015
H -1.03285 6.34726 -16.6201
H -2.01666 7.44671 -16.2806
O 3.206 1.883 7.493
H 3.67337 1.11736 7.82706
H 3.32325 1.84052 6.54396
O 5.567 -0.935 18.788
H 5.94464 -1.70345 19.2159
H 6.30448 -0.334726 18.6783
O 7.86 -4.059 -9.552
H 7.81732 -3.44392 -8.81982
H 7.17972 -4.70519 -9.36255
O 9.325 -0.635 -18.563
H 9.29671 0.252909 -18.9194
H 8.80979 -0.586865 -17.7577
O 4.302 -9.948 7.937
H 4.32528 9.55727 7.10614
H 5.21886 -9.88923 8.20559
O -2.145 -3.711 18.085
H -1.23338 -3.41936 18.0959
H -2.1629 -4.41874 17.4408
O -8.801 6.908 3.27
H -7.84532 6.85441 3.26385
H -9.01961 7.38756 2.47096
O 0.075 8.685 -13.143
H -0.0302632 8.29174 -12.2767
H 0.791233 9.31109 -13.0369
O -2.16 3.659 18.183
H -2.04557 3.57285 19.1294
H -1.40325 4.16966 17.8953
O 1.471 3.427 19.506
H 2.12242 3.65386 18.8424
H 1.11268 2.58883 19.2139
O -3.185 -9.243 10.463
H -2.88428 -9.67781 11.261
H -2.40205 -9.17631 9.91639
O 8.48 5.021 19.862
H 8.98204 5.82082 20.0184
H 8.91868 4.6034 19.1208
O 1.626 -0.402 20.428
H 2.21183 -0.0998279 -36.479
H 1.62202 0.311387 19.7898
O 7.936 -9.278 18.209
H 7.60116 -9.11759 19.0913
H 8.4678 9.91071 18.2943
O -6.882 -0.789 14.038
H -6.91967 -0.964812 14.9782
H -7.49322 -1.41633 13.6519
O -0.846 9.249 13.295
H -0.751925 8.60206 13.9942
H 0.0460369 9.39189 12.9786
O -3.168 7.473 -5.572
H -2.33111 7.56537 -5.11669
H -3.80512 7.31954 -4.87432
O -0.639 7.794 -4.722
H -1.09722 7.17071 -4.15829
H 0.242454 7.84845 -4.3528
O 4.376 -4.039 -11.473
H 4.27223 -3.64067 -10.6088
H 4.8244 -4.86744 -11.3031
O 4.517 1.499 12.528
H 4.69771 1.06817 11.6926
H 4.5809 0.799026 13.1778
O 3.817 -6.751 2.226
H 4.5757 -6.80601 1.64498
H 4.00117 -7.38222 2.92161
O 6.42 5.776 9.24
H 6.88065 5.89503 8.40942
H 6.68644 4.90688 9.53979
O 5.299 3.556 -14.88
H 4.95573 4.37468 -15.238
H 4.65429 3.29216 -14.2235
O -6.89 3.568 -7.225
H -7.11826 3.52094 -6.29661
H -6.41033 2.75742 -7.39559
O 7.7 2.908 -16.122
H 7.77016 3.83403 -16.3539
H 7.50159 2.90947 -15.1856
O 1.615 5.937 2.913
H 2.31016 6.46589 2.52151
H 1.63298 5.11555 2.42195
O -4.252 2.428 0.616
H -3.29796 2.38936 0.548632
H -4.56638 1.97208 -0.164725
O -4.863 3.55 2.539
H -4.7399 2.60092 2.55727
H -4.6795 3.7984 1.63299
O 8.252 9.457 3.051
H 8.60871 8.64408 3.40899
H 8.07288 9.25643 2.13235
O -1.644 1.08 -2.923
H -0.844083 1.54073 -2.66983
H -1.34051 0.230739 -3.24375
O -5.592 -9.092 -5.716
H -6.03714 -9.66455 -5.09129
H -4.95593 -8.60933 -5.18811
O 6.016 -2.252 9.525
H 5.30362 -2.86076 9.32964
H 6.65462 -2.398 8.82709
O -6.335 -6.209 5.039
H -5.57699 -5.93595 4.52219
H -6.98675 -6.47142 4.38893
O -5.301 1.665 -12.409
H -6.16054 1.56846 -11.999
H -4.88646 0.808902 -12.3018
O -3.029 9.806 -10.772
H -3.61876 9.14124 -10.4163
H -2.20074 9.66159 -10.3144
O -0.481 -3.536 6.59
H -0.605731 -4.47371 6.44381
H 0.314393 -3.32088 6.10286
O -0.672 -2.601 -4.221
H -0.584442 -1.8377 -3.65008
H -1.4788 -3.02651 -3.93074
O 6.112 5.286 -0.547
H 6.34372 5.83926 -1.29295
H 6.93987 4.88902 -0.27631
O 3.514 9.285 -11.203
H 4.38211 8.89019 -11.1208
H 3.09591 9.12353 -10.3572
O -5.617 -9.705 -18.774
H -5.14579 -8.91853 -19.0491
H -6.44209 -9.67206 -19.2581
O 3.46 -1.34 -6.746
H 2.89877 -0.636252 -6.42044
H 4.1605 -1.40791 -6.09722
O 2.52 2.569 10.025
H 2.55705 2.25611 9.12114
H 3.39559 2.91652 10.1947
O -8.239 7.319 -11.132
H -8.32337 6.61228 -10.492
H -7.3414 7.24362 -11.4558
O -6.949 4.907 -9.63
H -7.50342 4.19641 -9.30766
H -6.33372 5.07409 -8.91604
O -8.933 7.458 -15.277
H -9.07604 7.06892 -14.4142
H -8.99252 6.72136 -15.8853
O -8.661 -7.425 14.787
H -8.04075 -8.03639 14.3899
H -8.68606 -7.67471 15.7107
O -0.203 -7.655 12.85
H -0.626155 -8.50868 12.9416
H 0.732047 -7.85439 12.8035
O 5.908 -9.511 -15.671
H 5.29685 -9.20857 -14.9992
H 6.68207 -9.79119 -15.1826
O 3.882 3.453 14.704
H 3.58567 3.13854 15.5581
H 4.0177 2.65748 14.1893
O 1.36 -5.021 15.102
H 1.98762 -5.08863 15.8215
H 1.902 -4.92133 14.3194
O 9.116 6.575 2.81
H 9.66143 5.82097 2.58599
H 9.61688 7.33213 2.5065
O -3.566 4.925 -11.433
H -3.51967 4.0561 -11.8319
H -2.7677 5.36562 -11.7242
O -1.141 4.806 -12.94
H -0.870225 3.94754 -13.2655
H -0.674491 4.9061 -12.1102
O -1.234 4.399 -3.96
H -0.335018 4.0703 -3.96444
H -1.58847 4.11701 -3.11676
O 5.221 3.587 5.113
H 5.38091 3.41047 4.18591
H 5.34997 2.74206 5.54391
O 7.414 -3.613 2.725
H 7.73262 -3.76988 1.83612
H 7.2349 -4.48638 3.07338
O 9.079 -1.302 15.027
H 8.63415 -1.69302 15.779
H 9.60659 -2.01329 14.6638
O 7.04 3.211 19.794
H 7.75584 3.84498 19.8373
H 7.46979 2.35859 19.8641
O -4.495 4.441 12.39
H -4.8316 3.63512 11.9982
H -3.55787 4.42925 12.1954
O -5.169 6.466 10.836
H -4.92827 6.32665 9.92011
H -4.83147 5.69549 11.2928
O 0.297 3.421 15.501
H 0.989769 2.91287 15.079
H 0.714985 3.80126 16.2736
O -3.756 -9.931 12.926
H -3.84634 9.41809 13.6402
H -2.81737 -9.9127 12.7392
O 3.712 -3.379 2.877
H 3.6419 -4.2333 3.30301
H 4.38125 -3.50083 2.20359
O -3.912 -4.076 10.649
H -4.09376 -4.27945 9.7315
H -3.18473 -4.65261 10.8832
O 7.689 5.695 7.292
H 8.61011 5.43482 7.28239
H 7.48361 5.8846 6.37652
O -9.718 -6.428 -7.674
H -9.2281 -5.80714 -7.13478
H -9.85654 -7.18409 -7.10359
O 4.667 -1.715 5.897
H 5.49393 -1.36177 6.2251
H 4.77987 -1.74718 4.94702
O -4.793 5.451 17.928
H -4.71728 6.10169 18.6259
H -3.89786 5.14094 17.7908
O 5.383 -6.397 -13.267
H 6.31767 -6.40548 -13.0607
H 5.12665 -7.31918 -13.257
O -0.973 2.51 13.519
H -0.85058 2.67985 14.453
H -0.197597 2.88666 13.1029
O -3.761 -7.169 -0.997
H -3.63226 -8.03737 -1.37857
H -3.56415 -7.28379 -0.0673203
O 5.487 0.463 -6.441
H 5.24849 -0.302172 -5.91769
H 4.9578 1.17459 -6.08069
O -7.01 4.381 10.797
H -6.42393 4.92877 11.3192
H -6.79578 4.59753 9.88955
O 3.194 -0.15 16.173
H 2.62313 -0.756814 16.6443
H 3.69049 0.294924 16.8599
O -9.557 -2.476 -12.193
H -9.19634 -1.82371 -11.5924
H 9.70259 -2.52462 -11.9651
O 8.913 -7.703 -16.224
H 8.74829 -7.63261 -15.2837
H 8.8388 -8.63877 -16.4112
O -6.722 -6.64 -1.019
H -6.83278 -7.06315 -1.87041
H -6.86515 -7.3404 -0.382469
O -6.724 -2.758 3.967
H -6.56269 -2.27908 3.15408
H -5.8516 -2.98456 4.28921
O 3.235 -6.93 -2.171
H 4.18968 -6.99925 -2.17622
H 3.05546 -6.12448 -1.68609
O 6.623 -3.635 4.867
H 7.52047 -3.60756 5.1987
H 6.71897 -3.63295 3.91463
O -9.016 5.059 -18.434
H -9.4276 4.19517 -18.4093
H -8.29214 4.99787 -17.8107
O 8.985 4.513 -13.298
H 8.49103 5.27612 -12.9982
H 9.40961 4.17677 -12.5088
O -0.657 -5.199 16.301
H -0.165442 -5.3003 15.4859
H -0.0159749 -4.86357 16.9277
O 7.972 -2.917 17.187
H 7.75802 -3.09344 18.1031
H 7.65111 -3.6845 16.7135
O 8.351 0.417 12.039
H 9.02295 0.0240303 12.596
H 8.36717 -0.106496 11.2378
O 2.231 7.705 -14.905
H 1.77338 8.36062 -14.3787
H 2.99375 8.16664 -15.2533
O -3.8 -9.137 15.334
H -2.88995 -9.29576 15.0833
H -3.82338 -9.31003 16.2751
O -6.406 -1.817 20.193
H -6.61466 -2.52693 19.5858
H -5.5954 -1.43952 19.8514
O -8.036 -9.364 -10.308
H -7.57627 -8.96508 -9.56926
H -8.96276 -9.29813 -10.0778
O 7.942 4.666 -8.063
H 8.30122 5.26038 -7.40429
H 7.09969 4.38898 -7.70243
O 8.389 1.533 -8.226
H 7.75608 0.937717 -7.82441
H 8.04301 2.40739 -8.0472
O -4.733 -5.626 -7.732
H -5.02962 -5.308 -6.87928
H -4.50791 -6.54398 -7.58076
O -0.796 9.827 -7.382
H -1.24444 8.99827 -7.21367
H -0.262635 9.97423 -6.60093
O -4.25 9.332 -2.624
H -3.60685 9.28602 -1.91655
H -5.03071 8.90905 -2.26645
O -3.094 -9.947 -4.364
H -3.79473 -9.29629 -4.40617
H -2.52915 -9.64563 -3.65242
O 3.763 3.35 -1.232
H 4.1382 4.11817 -0.80146
H 4.49494 2.9624 -1.71187
O -9.43 -8.14 0.769
H -9.45934 -7.63396 -0.0429701
H 9.9745 -8.689 0.738077
O -2.364 -2.695 -11.534
H -1.46182 -2.69564 -11.2141
H -2.75616 -3.47804 -11.1476
O 2.147 8.06 5.58
H 2.25729 7.92433 4.6389
H 2.39591 7.22382 5.97381
O -3.029 7.764 -8.959
H -3.54995 7.07194 -8.5517
H -2.16726 7.68841 -8.54923
O 6.929 -3.338 7.42
H 6.26626 -3.90991 7.0328
H 7.68334 -3.41496 6.8358
O 6.43 6.646 -11.663
H 6.07145 6.52326 -10.784
H 7.23907 7.13869 -11.5255
O -1.786 -5.977 -8.678
H -2.64004 -6.35312 -8.46496
H -1.472 -5.61092 -7.85118
O 0.471 -4.983 -9.241
H 1.01275 -4.67072 -8.51628
H -0.323299 -5.31386 -8.82165
O -3.011 9.986 1.689
H -2.77798 9.88121 2.61147
H -2.26213 -9.5402 1.30236
O 1.538 0.189 5.539
H 2.08813 0.27615 4.76054
H 1.30005 -0.737863 5.56217
O 8.199 -5.182 0.349
H 8.96623 -4.65902 0.581557
H 8.47642 -6.08815 0.483731
O 6.542 -9.764 -0.296
H 6.51806 9.27203 -0.452759
H 7.2112 -9.64968 0.378783
O -4.316 -1.007 13.815
H -3.458 -1.17397 13.4249
H -4.12369 -0.749538 14.7166
O 0.501 -7.593 9.263
H 0.0808103 -8.43416 9.08375
H 1.30082 -7.60743 8.73735
O -2.093 -3.379 1.693
H -2.10234 -3.93119 0.911186
H -2.22586 -3.98857 2.41895
O 9.249 -5.583 -16.713
H 8.55158 -6.23833 -16.7322
H 10.0084 -6.05088 -16.3658
O 0.573 -7.103 -2.38
H 0.196453 -7.67187 -1.70856
H 1.50503 -7.32102 -2.38415
O 4.658 5.948 16.852
H 4.72302 5.60894 17.7448
H 5.32389 6.63414 16.8068
O -7.093 5.391 5.859
H -7.02847 5.84123 5.01676
H -6.5516 4.60851 5.75494
O 5.045 -4.088 -0.737
H 5.49642 -3.28327 -0.482329
H 5.7343 -4.75161 -0.763921
O 8.495 1.753 14.409
H 8.31756 1.44824 15.2989
H 8.33142 0.988679 13.8565
O -6.964 0.804 -10.47
H -6.30975 1.08107 -9.82858
H -7.67963 0.447033 -9.944
O -5.14 -1.436 -2.409
H -4.24377 -1.72708 -2.24084
H -5.68396 -2.01027 -1.86998
O 5.166 6.928 -15.678
H 4.24504 7.03289 -15.4391
H 5.50116 7.82244 -15.7402
O -0.518 -9.939 9.774
H -0.74927 9.45784 9.05104
H 0.236046 -9.44503 9.45208
O 1.852 -1.978 4.313
H 1.70349 -2.91688 4.20038
H 2.41168 -1.73345 3.57599
O -6.801 1.129 19.191
H -5.94051 1.28963 18.8037
H -6.75137 0.232431 19.5226
O 7.727 3.529 -3.914
H 8.05385 2.7304 -3.49971
H 7.86208 4.21246 -3.25759
O 9.579 3.714 17.8
H 9.55828 3.11674 18.5477
H -9.69533 3.70971 17.5147
O -1.539 -5.813 5.834
H -1.96114 -6.66445 5.7197
H -1.26863 -5.55881 4.95166
O -7.234 -1.303 1.563
H -6.31503 -1.4552 1.34264
H -7.7154 -1.94523 1.04144
O 1.659 6.514 16.652
H 2.31709 6.08701 17.2005
H 2.14753 7.17527 16.1618
O 1.176 0.28 -6.337
H 0.904237 -0.10631 -5.50445
H 2.12135 0.133981 -6.37209
O 0.054 -1.874 19.151
H 0.835774 -1.35983 19.3527
H 0.218013 -2.22707 18.2765
O 9.063 -9.102 -11.375
H 8.79395 -8.32587 -10.8836
H 9.30235 -9.74039 -10.7031
O 1.529 -7.515 -11.13
H 2.14065 -8.18281 -10.8199
H 1.93606 -6.68419 -10.8845
O 4.767 2.542 -6.32
H 4.72308 2.1296 -5.45731
H 4.44032 3.43048 -6.17818
O -6.678 -6.271 7.71
H -5.86283 -5.97352 7.30596
H -7.24141 -6.50231 6.97155
O -1.074 4.345 5.716
H -1.20089 3.44129 5.42713
H -0.596675 4.76154 4.99844
O -9.519 -6.605 -1.694
H -9.48855 -6.09302 -2.50219
H 9.74157 -6.80931 -1.57414
O 9.835 -2.063 -4.673
H -9.74916 -1.43514 -4.27626
H 9.05037 -1.55076 -4.86846
O -5.427 3.672 -4.297
H -5.3196 4.00063 -3.40442
H -5.0998 2.77311 -4.26278
O 4.56 -5.894 -5.89
H 4.02461 -6.31253 -5.21589
H 4.92487 -5.12024 -5.46059
O -7.71 -1.359 -5.286
H -8.50902 -1.8759 -5.18299
H -7.48432 -1.08622 -4.39668
O -1.345 4.872 -7.985
H -1.80572 4.04318 -7.85451
H -1.42674 5.32659 -7.14661
O -5.788 6.956 -11.882
H -6.06964 7.31069 -11.0387
H -4.83197 6.95491 -11.8347
O -9.276 -4.63 16.996
H -8.45909 -4.7147 16.5044
H -9.46425 -5.51679 17.3032
O -5.883 4.013 16.192
H -5.41663 4.41839 16.923
H -5.76243 3.07243 16.3224
O -9.63 -7.182 17.763
H -9.92312 -8.07254 17.57
H -9.30908 -7.2249 18.6638
O -6.393 6.645 -3.947
H -6.01032 5.76763 -3.94602
H -6.31082 6.94368 -3.04131
O 4.173 5.321 -19.739
H 3.29074 4.95481 -19.6776
H 4.08263 6.21933 -19.4211
O -4.018 -5.05 -10.54
H -4.78087 -5.50213 -10.1797
H -3.49981 -4.80522 -9.77332
O 3.897 -8.875 -3.333
H 3.45425 -8.04806 -3.14227
H 4.42576 -9.04928 -2.55436
O -9.533 -7.775 -5.501
H -9.14779 -7.64184 -4.63491
H -9.92302 -8.64811 -5.45852
O 4.66 0.076 -13.266
H 4.17397 0.89542 -13.1735
H 4.8075 -0.218328 -12.3672
O 8.942 -3.564 5.832
H 9.45797 -3.66846 5.03257
H 9.59293 -3.49339 6.53024
O -2.651 3.795 -1.163
H -1.9574 3.51018 -1.75801
H -2.21534 3.89396 -0.316453
O -7.702 -9.329 17.344
H -8.05998 -9.17095 18.2176
H -7.10485 9.91188 17.4595
O 7.612 -7.982 15.902
H 7.9414 -8.59621 16.5581
H 8.11852 -8.17824 15.1139
O 3.364 8.344 -8.676
H 4.26157 8.50515 -8.38507
H 2.93349 7.94824 -7.91819
O 6.742 7.581 17.847
H 7.611 7.85594 18.1394
H 6.8521 6.6637 17.5966
O 6.428 6.917 -6.837
H 5.99824 7.52029 -6.23072
H 6.80351 6.23909 -6.27516
O 4.853 5.817 4.187
H 4.95243 5.9273 3.24139
H 5.03611 4.8902 4.34108
O -8.61 -7.037 6.254
H -7.68894 -7.29752 6.25311
H -9.0067 -7.5554 5.55391
O 1.231 0.189 1.753
H 0.927069 -0.622594 1.34659
H 2.16489 0.0455498 1.90629
O 3.816 -1.295 -2.336
H 4.53849 -1.25665 -1.70929
H 3.11123 -1.7375 -1.86299
O 8.825 -7.757 -1.973
H 9.41154 -8.09545 -1.2965
H 8.00437 -7.58072 -1.51286
O 9.724 4.463 -10.172
H 8.8275 4.55881 -9.85054
H -9.92892 4.41423 -9.37982
O 0.085 6.309 12.543
H 0.228039 5.65884 11.8552
H 0.933078 6.74095 12.645
O 7.722 -3.618 -17.694
H 8.49531 -3.0607 -17.7814
H 8.05709 -4.43842 -17.3323
O 2.447 8.44 15.073
H 3.02932 9.00934 14.57
H 3.03254 7.81398 15.499
O 4.568 5.918 -3.904
H 4.08032 6.003 -3.08475
H 5.40856 6.3407 -3.72789
O -6.79 -9.234 5.507
H -6.81498 -9.13907 4.55485
H -5.97106 -9.69818 5.68049
O -7.492 -3.239 -0.121
H -6.7628 -3.85223 -0.0290733
H -8.03041 -3.60947 -0.82036
O -7.132 -8.309 -3.007
H -6.32289 -7.89246 -2.71025
H -7.80338 -7.98355 -2.40736
O 0.694 -5.351 10.341
H 0.929366 -5.49218 9.42399
H 0.141333 -6.09976 10.5649
O 7.953 9.384 -11.226
H 7.48079 8.5893 -11.4744
H 8.12922 9.27622 -10.2914
O -8.521 7.748 -19.16
H -7.59857 7.81934 -18.9145
H -8.75946 6.84791 -18.9382
O -0.358 3.113 -1.99
H 0.388798 3.03646 -2.58386
H -0.0894268 2.63712 -1.2041
O -9.421 1.95 -12.591
H -8.62442 2.48073 -12.594
H -9.79424 2.08231 -11.7196
O 2.746 3.301 -12.863
H 3.30191 3.9407 -12.4181
H 1.98461 3.20557 -12.2908
O 1.262 1.575 18.08
H 1.52642 1.10257 17.2906
H 1.80412 2.36388 18.0805
O -5.352 -5.312 -5.54
H -6.06838 -4.93848 -5.02667
H -4.734 -5.6397 -4.88661
O -2.087 -0.184 15.94
H -1.13768 -0.167391 15.8185
H -2.20994 -0.083935 16.884
O -2.386 5.22 12.411
H -2.09778 4.45304 11.9161
H -1.58907 5.73334 12.5437
O -7.749 -9.011 -20.442
H -7.91531 -9.85613 -20.8595
H -8.39677 -8.42118 -20.8277
O -6.146 -9.365 2.9
H -5.47935 -9.03029 2.30019
H -6.72182 -9.89393 2.34783
O 7.28 1.366 4.192
H 8.15708 1.11183 4.47899
H 7.41218 2.18306 3.7112
O 2.446 7.626 20.661
H 3.21492 7.76659 -36.3876
H 2.47025 6.69291 20.4489
O -7.547 -7.481 10.759
H -7.527 -8.43536 10.6881
H -6.73255 -7.19263 10.347
O -5.443 -5.276 -3.185
H -5.26505 -5.01341 -2.28189
H -6.06552 -5.99887 -3.10651
O -3.186 -3.8 -20.385
H -3.53138 -4.67103 -20.5806
H -3.41251 -3.65267 -19.4667
O 6.143 1.301 -1.597
H 6.84021 0.659021 -1.73115
H 6.52785 1.95481 -1.01334
O 0.46 8.198 -10.675
H 1.1726 8.7429 -10.3411
H 0.179437 7.68069 -9.92008
O 6.693 -0.945 5.52
H 6.90613 -1.74757 5.99611
H 7.54247 -0.551443 5.32066
O 6.432 -7.103 8.17
H 7.26864 -6.88011 8.57814
H 6.64369 -7.23642 7.24608
O 5.219 -7.03 5.217
H 5.5422 -7.89477 4.96414
H 5.97764 -6.45372 5.12429
O -2.765 -9.242 5.261
H -2.94807 9.80914 5.40218
H -1.9748 -9.07247 5.77391
O -8.8 7.316 8.061
H -8.64784 6.39792 8.28508
H -8.07231 7.78616 8.468
O -9.644 -2.454 16.76
H -8.69441 -2.47579 16.6415
H -9.88816 -3.3673 16.91
O -6.838 9.665 19.767
H -6.49403 -9.9361 20.5759
H -6.3296 8.86363 19.6422
O -7.014 -1.543 -11.947
H -7.25733 -0.695022 -11.5756
H -7.84782 -1.99152 -12.0878
O 10.093 -4.203 -2.078
H 9.72256 -3.44514 -1.62562
H 9.73826 -4.95888 -1.60998
O 0.698 -4.522 -1.537
H 1.01858 -4.7138 -2.41829
H 0.408656 -5.36882 -1.19729
O 2.511 -8.793 -0.01
H 2.11657 -9.61658 0.277019
H 2.81543 -8.37852 0.797318
O -1.544 6.752 -11.867
H -0.940308 7.34285 -11.4168
H -0.989133 6.04154 -12.1889
O -8.522 2.932 11.861
H -8.44595 2.05166 11.493
H -7.87955 3.45081 11.3769
O -0.798 8.648 7.591
H 0.099079 8.90634 7.37947
H -0.846637 7.72473 7.34313
O 2.936 3.447 17.562
H 3.58574 4.09424 17.2878
H 2.97329 2.76892 16.8874
O -3.291 -9.666 17.517
H -2.85463 9.70418 16.9221
H -3.02872 -9.95447 18.3912
O 2.385 3.537 -7.581
H 2.00426 3.67173 -6.71318
H 3.23608 3.97314 -7.54002
O 10.082 1.075 -4.194
H -9.50252 0.438274 -4.57691
H -9.88899 1.08083 -3.26174
O -4.009 -7.205 6.91
H -4.58202 -7.80239 7.39064
H -4.27186 -7.30451 5.99499
O -4.946 6.866 8.386
H -4.56328 6.08194 8.77971
H -4.73232 6.79608 7.45558
O -5.429 2.158 7.475
H -5.21924 2.32469 6.55606
H -4.90709 1.38917 7.70466
O 9.097 -1.258 -0.883
H 9.11623 -0.745547 -0.0747587
H 8.9472 -2.15786 -0.593108
O -1.62 -5.215 -5.982
H -1.35959 -6.03091 -5.55456
H -1.68431 -4.58018 -5.26849
O -6.72 -9.5 8.175
H -7.30205 -9.82301 7.48717
H -6.05981 -8.98671 7.70926
O 6.353 3.74 1.301
H 7.22547 3.48959 1.60484
H 6.5154 4.34597 0.578048
O 7.545 -4.618 10.823
H 7.77182 -4.79741 11.7355
H 6.86049 -5.25435 10.6163
O 5.13 -1.606 -0.177
H 4.68783 -2.41599 -0.431231
H 6.04815 -1.85607 -0.073591
O 9.612 5.313 6.148
H -9.6892 5.20657 5.80377
H 9.04168 5.02598 5.43484
O -9.472 -2.9 -17.184
H 9.8961 -2.47593 -16.9307
H -9.24846 -3.45553 -16.4372
O 3.988 -4.305 8.565
H 4.3989 -4.9022 9.1901
H 4.54181 -4.35483 7.78587
O -4.74 -1.801 0.89
H -3.83169 -1.98039 0.647062
H -5.2583 -2.35713 0.308353
O -7.488 8.265 17.575
H -7.98438 7.55095 17.975
H -7.22015 8.8135 18.3123
O 9.064 8.484 -19.631
H 9.22521 8.40296 -18.691
H 8.11136 8.44428 -19.7154
O -7.507 -4.537 -16.64
H -8.27895 -4.05824 -16.9419
H -7.54137 -5.36941 -17.1113
O -0.552 -9.645 6.954
H 0.313179 -9.83819 7.31508
H -0.455104 -9.78304 6.01177
O -8.678 -3.948 6.089
H -8.40919 -3.78185 5.18547
H -8.66656 -4.90159 6.17129
O -9.09 5.941 18.752
H -8.25312 5.52656 18.542
H -9.6197 5.23651 19.1253
O 6.39 -6.676 -3.248
H 6.05103 -7.55879 -3.39639
H 7.2321 -6.81212 -2.81376
O -4.368 -7.656 -6.848
H -5.24967 -7.30576 -6.72066
H -4.38483 -8.51076 -6.41749
O -10.019 9.609 6.958
H -9.22789 9.8569 7.43646
H -10.07 8.65809 7.05496
O -2.618 -1.76 8.324
H -2.13014 -1.97745 7.52968
H -2.86799 -2.60766 8.69171
O -0.914 2.284 11.181
H -0.590309 1.8464 11.9684
H -0.585518 1.7502 10.4575
O -7.073 -3.874 8.962
H -6.21735 -3.83235 8.53496
H -6.89866 -4.28384 9.80927
O -6.972 6.814 -6.102
H -7.36468 6.86869 -5.23077
H -6.04753 6.62833 -5.93734
O 3.402 6.46 -1
H 4.24832 6.5587 -1.43616
H 3.59063 6.60933 -0.0735268
O -8.153 -0.339 7.115
H -7.83828 -0.601624 6.25001
H -7.36297 -0.290427 7.65327
O -4.432 5.094 -7.776
H -4.99228 4.3693 -7.49828
H -3.54057 4.77948 -7.62546
O -3.937 -4.118 -0.978
H -4.43474 -4.34942 -0.193825
H -3.05115 -4.43522 -0.802278
O -9.601 7.163 15.427
H -9.08987 7.53475 16.1459
H -8.94579 6.82959 14.814
O -5.484 -3.793 -14.777
H -6.41203 -3.82119 -15.0098
H -5.4641 -3.36413 -13.9215
O 3.302 -6.021 5.925
H 3.56889 -6.6933 6.55191
H 3.97048 -6.05213 5.2406
O 2.956 -9.732 -6.163
H 3.83499 -9.94692 -5.85088
H 2.39052 9.58903 -5.76024
O 6.155 -1.333 -9.249
H 5.46572 -1.87477 -8.86479
H 6.91306 -1.47064 -8.68099
O 0.86 6.17 0.362
H 1.33181 5.40193 0.684008
H 1.06153 6.20078 -0.573239
O 6.294 -7.29 -0.191
H 7.13663 -6.88493 0.0142214
H 6.4779 -8.22914 -0.211749
O -6.944 -2.461 16.416
H -6.89513 -3.01786 15.639
H -6.03326 -2.23937 16.6101
O -1.938 7.483 17.119
H -2.28084 6.75813 17.6417
H -1.216 7.83424 17.6401
O -2.466 -9.972 18.384
H -2.22779 9.28085 17.8089
H -2.7898 9.58772 19.1807
O -2.416 -5.166 2.959
H -2.82618 -5.9544 3.31454
H -3.00981 -4.87843 2.26551
O -2.492 -1.547 20.556
H -1.53673 -1.60631 20.5692
H -2.72555 -1.64047 19.6324
O -1.214 -2.801 -8.203
H -1.66325 -3.62307 -8.39952
H -1.90471 -2.22051 -7.88335
O 0.791 -3.392 -6.06
H 0.116021 -3.05451 -5.47116
H 1.51739 -3.62716 -5.48269
O 7.967 8.172 0.417
H 8.64926 7.62185 0.801807