ITEM: TIMESTEP
10
ITEM: NUMBER OF ATOMS
1835
ITEM: BOX BOUNDS pp pp pp
-1.0093999999999999e+01 1.0093999999999999e+01
-9.9900000000000002e+00 9.9900035801999998e+00
-3.6864073260000005e+01 2.0736999999999998e+01
ITEM: ATOMS id type element mass x y z vx vy vz ix iy iz
74 4 C 1.008 -9.29511 -7.27469 -36.6142 0 0 0 0 0 1
75 4 C 1.008 -8.28024 -8.39409 -36.7084 0 0 0 0 0 1
1552 15 C 197 -8.1564 -8.1564 -36.7038 0 0 0 0 0 0
1553 15 C 197 -6.1173 -6.1173 -36.7038 0 0 0 0 0 0
1554 15 C 197 -6.1173 -8.1564 -34.6647 0 0 0 0 0 0
1555 15 C 197 -8.1564 -6.1173 -34.6647 0 0 0 0 0 0
1556 15 C 197 -4.0782 -8.1564 -36.7038 0 0 0 0 0 0
1557 15 C 197 -2.0391 -6.1173 -36.7038 0 0 0 0 0 0
1558 15 C 197 -2.0391 -8.1564 -34.6647 0 0 0 0 0 0
1559 15 C 197 -4.0782 -6.1173 -34.6647 0 0 0 0 0 0
1570 15 C 197 -8.1564 -4.0782 -36.7038 0 0 0 0 0 0
1571 15 C 197 -6.1173 -2.0391 -36.7038 0 0 0 0 0 0
1572 15 C 197 -6.1173 -4.0782 -34.6647 0 0 0 0 0 0
1573 15 C 197 -8.1564 -2.0391 -34.6647 0 0 0 0 0 0
1574 15 C 197 -4.0782 -4.0782 -36.7038 0 0 0 0 0 0
1575 15 C 197 -2.0391 -2.0391 -36.7038 0 0 0 0 0 0
1576 15 C 197 -2.0391 -4.0782 -34.6647 0 0 0 0 0 0
1577 15 C 197 -4.0782 -2.0391 -34.6647 0 0 0 0 0 0
1588 15 C 197 -8.1564 0 -36.7038 0 0 0 0 0 0
1590 15 C 197 -6.1173 0 -34.6647 0 0 0 0 0 0
1592 15 C 197 -4.0782 0 -36.7038 0 0 0 0 0 0
1594 15 C 197 -2.0391 0 -34.6647 0 0 0 0 0 0
1633 15 C 197 -8.1564 -8.1564 -32.6256 0 0 0 0 0 0
1634 15 C 197 -6.1173 -6.1173 -32.6256 0 0 0 0 0 0
1635 15 C 197 -6.1173 -8.1564 -30.5865 0 0 0 0 0 0
1636 15 C 197 -8.1564 -6.1173 -30.5865 0 0 0 0 0 0
1637 15 C 197 -4.0782 -8.1564 -32.6256 0 0 0 0 0 0
1638 15 C 197 -2.0391 -6.1173 -32.6256 0 0 0 0 0 0
1639 15 C 197 -2.0391 -8.1564 -30.5865 0 0 0 0 0 0
1640 15 C 197 -4.0782 -6.1173 -30.5865 0 0 0 0 0 0
1651 15 C 197 -8.1564 -4.0782 -32.6256 0 0 0 0 0 0
1652 15 C 197 -6.1173 -2.0391 -32.6256 0 0 0 0 0 0
1653 15 C 197 -6.1173 -4.0782 -30.5865 0 0 0 0 0 0
1654 15 C 197 -8.1564 -2.0391 -30.5865 0 0 0 0 0 0
1655 15 C 197 -4.0782 -4.0782 -32.6256 0 0 0 0 0 0
1656 15 C 197 -2.0391 -2.0391 -32.6256 0 0 0 0 0 0
1657 15 C 197 -2.0391 -4.0782 -30.5865 0 0 0 0 0 0
1658 15 C 197 -4.0782 -2.0391 -30.5865 0 0 0 0 0 0
1669 15 C 197 -8.1564 0 -32.6256 0 0 0 0 0 0
1671 15 C 197 -6.1173 0 -30.5865 0 0 0 0 0 0
1673 15 C 197 -4.0782 0 -32.6256 0 0 0 0 0 0
1675 15 C 197 -2.0391 0 -30.5865 0 0 0 0 0 0
413 4 C 1.008 2.21183 -0.0998279 -36.479 0 0 0 0 0 1
1404 4 C 1.008 7.90288 -2.59516 -36.6572 0 0 0 0 0 1
1532 4 C 1.008 7.07613 -9.77168 -36.2124 0 0 0 0 0 1
1533 4 C 1.008 6.27034 -8.50666 -36.4181 0 0 0 0 0 1
1560 15 C 197 0 -8.1564 -36.7038 0 0 0 0 0 0
1561 15 C 197 2.0391 -6.1173 -36.7038 0 0 0 0 0 0
1562 15 C 197 2.0391 -8.1564 -34.6647 0 0 0 0 0 0
1563 15 C 197 0 -6.1173 -34.6647 0 0 0 0 0 0
1564 15 C 197 4.0782 -8.1564 -36.7038 0 0 0 0 0 0
1565 15 C 197 6.1173 -6.1173 -36.7038 0 0 0 0 0 0
1566 15 C 197 6.1173 -8.1564 -34.6647 0 0 0 0 0 0
1567 15 C 197 4.0782 -6.1173 -34.6647 0 0 0 0 0 0
1568 15 C 197 8.1564 -8.1564 -36.7038 0 0 0 0 0 0
1569 15 C 197 8.1564 -6.1173 -34.6647 0 0 0 0 0 0
1578 15 C 197 0 -4.0782 -36.7038 0 0 0 0 0 0
1579 15 C 197 2.0391 -2.0391 -36.7038 0 0 0 0 0 0
1580 15 C 197 2.0391 -4.0782 -34.6647 0 0 0 0 0 0
1581 15 C 197 0 -2.0391 -34.6647 0 0 0 0 0 0
1582 15 C 197 4.0782 -4.0782 -36.7038 0 0 0 0 0 0
1583 15 C 197 6.1173 -2.0391 -36.7038 0 0 0 0 0 0
1584 15 C 197 6.1173 -4.0782 -34.6647 0 0 0 0 0 0
1585 15 C 197 4.0782 -2.0391 -34.6647 0 0 0 0 0 0
1586 15 C 197 8.1564 -4.0782 -36.7038 0 0 0 0 0 0
1587 15 C 197 8.1564 -2.0391 -34.6647 0 0 0 0 0 0
1596 15 C 197 0 0 -36.7038 0 0 0 0 0 0
1598 15 C 197 2.0391 0 -34.6647 0 0 0 0 0 0
1600 15 C 197 4.0782 0 -36.7038 0 0 0 0 0 0
1602 15 C 197 6.1173 0 -34.6647 0 0 0 0 0 0
1604 15 C 197 8.1564 0 -36.7038 0 0 0 0 0 0
1641 15 C 197 0 -8.1564 -32.6256 0 0 0 0 0 0
1642 15 C 197 2.0391 -6.1173 -32.6256 0 0 0 0 0 0
1643 15 C 197 2.0391 -8.1564 -30.5865 0 0 0 0 0 0
1644 15 C 197 0 -6.1173 -30.5865 0 0 0 0 0 0
1645 15 C 197 4.0782 -8.1564 -32.6256 0 0 0 0 0 0
1646 15 C 197 6.1173 -6.1173 -32.6256 0 0 0 0 0 0
1647 15 C 197 6.1173 -8.1564 -30.5865 0 0 0 0 0 0
1648 15 C 197 4.0782 -6.1173 -30.5865 0 0 0 0 0 0
1649 15 C 197 8.1564 -8.1564 -32.6256 0 0 0 0 0 0
1650 15 C 197 8.1564 -6.1173 -30.5865 0 0 0 0 0 0
1659 15 C 197 0 -4.0782 -32.6256 0 0 0 0 0 0
1660 15 C 197 2.0391 -2.0391 -32.6256 0 0 0 0 0 0
1661 15 C 197 2.0391 -4.0782 -30.5865 0 0 0 0 0 0
1662 15 C 197 0 -2.0391 -30.5865 0 0 0 0 0 0
1663 15 C 197 4.0782 -4.0782 -32.6256 0 0 0 0 0 0
1664 15 C 197 6.1173 -2.0391 -32.6256 0 0 0 0 0 0
1665 15 C 197 6.1173 -4.0782 -30.5865 0 0 0 0 0 0
1666 15 C 197 4.0782 -2.0391 -30.5865 0 0 0 0 0 0
1667 15 C 197 8.1564 -4.0782 -32.6256 0 0 0 0 0 0
1668 15 C 197 8.1564 -2.0391 -30.5865 0 0 0 0 0 0
1677 15 C 197 0 0 -32.6256 0 0 0 0 0 0
1679 15 C 197 2.0391 0 -30.5865 0 0 0 0 0 0
1681 15 C 197 4.0782 0 -32.6256 0 0 0 0 0 0
1683 15 C 197 6.1173 0 -30.5865 0 0 0 0 0 0
1685 15 C 197 8.1564 0 -32.6256 0 0 0 0 0 0
163 12 C 15.999 -2.889 2.79 -36.8561 0 0 0 0 0 1
164 4 C 1.008 -3.36474 2.00493 -36.5848 0 0 0 0 0 1
1158 4 C 1.008 -3.39825 9.12911 -36.1624 0 0 0 0 0 1
1589 15 C 197 -6.1173 2.0391 -36.7038 0 0 0 0 0 0
1591 15 C 197 -8.1564 2.0391 -34.6647 0 0 0 0 0 0
1593 15 C 197 -2.0391 2.0391 -36.7038 0 0 0 0 0 0
1595 15 C 197 -4.0782 2.0391 -34.6647 0 0 0 0 0 0
1606 15 C 197 -8.1564 4.0782 -36.7038 0 0 0 0 0 0
1607 15 C 197 -6.1173 6.1173 -36.7038 0 0 0 0 0 0
1608 15 C 197 -6.1173 4.0782 -34.6647 0 0 0 0 0 0
1609 15 C 197 -8.1564 6.1173 -34.6647 0 0 0 0 0 0
1610 15 C 197 -4.0782 4.0782 -36.7038 0 0 0 0 0 0
1611 15 C 197 -2.0391 6.1173 -36.7038 0 0 0 0 0 0
1612 15 C 197 -2.0391 4.0782 -34.6647 0 0 0 0 0 0
1613 15 C 197 -4.0782 6.1173 -34.6647 0 0 0 0 0 0
1624 15 C 197 -8.1564 8.1564 -36.7038 0 0 0 0 0 0
1625 15 C 197 -6.1173 8.1564 -34.6647 0 0 0 0 0 0
1626 15 C 197 -4.0782 8.1564 -36.7038 0 0 0 0 0 0
1627 15 C 197 -2.0391 8.1564 -34.6647 0 0 0 0 0 0
1670 15 C 197 -6.1173 2.0391 -32.6256 0 0 0 0 0 0
1672 15 C 197 -8.1564 2.0391 -30.5865 0 0 0 0 0 0
1674 15 C 197 -2.0391 2.0391 -32.6256 0 0 0 0 0 0
1676 15 C 197 -4.0782 2.0391 -30.5865 0 0 0 0 0 0
1687 15 C 197 -8.1564 4.0782 -32.6256 0 0 0 0 0 0
1688 15 C 197 -6.1173 6.1173 -32.6256 0 0 0 0 0 0
1689 15 C 197 -6.1173 4.0782 -30.5865 0 0 0 0 0 0
1690 15 C 197 -8.1564 6.1173 -30.5865 0 0 0 0 0 0
1691 15 C 197 -4.0782 4.0782 -32.6256 0 0 0 0 0 0
1692 15 C 197 -2.0391 6.1173 -32.6256 0 0 0 0 0 0
1693 15 C 197 -2.0391 4.0782 -30.5865 0 0 0 0 0 0
1694 15 C 197 -4.0782 6.1173 -30.5865 0 0 0 0 0 0
1705 15 C 197 -8.1564 8.1564 -32.6256 0 0 0 0 0 0
1706 15 C 197 -6.1173 8.1564 -30.5865 0 0 0 0 0 0
1707 15 C 197 -4.0782 8.1564 -32.6256 0 0 0 0 0 0
1708 15 C 197 -2.0391 8.1564 -30.5865 0 0 0 0 0 0
929 4 C 1.008 3.21492 7.76659 -36.3876 0 0 0 0 0 1
1597 15 C 197 2.0391 2.0391 -36.7038 0 0 0 0 0 0
1599 15 C 197 0 2.0391 -34.6647 0 0 0 0 0 0
1601 15 C 197 6.1173 2.0391 -36.7038 0 0 0 0 0 0
1603 15 C 197 4.0782 2.0391 -34.6647 0 0 0 0 0 0
1605 15 C 197 8.1564 2.0391 -34.6647 0 0 0 0 0 0
1614 15 C 197 0 4.0782 -36.7038 0 0 0 0 0 0
1615 15 C 197 2.0391 6.1173 -36.7038 0 0 0 0 0 0
1616 15 C 197 2.0391 4.0782 -34.6647 0 0 0 0 0 0
1617 15 C 197 0 6.1173 -34.6647 0 0 0 0 0 0
1618 15 C 197 4.0782 4.0782 -36.7038 0 0 0 0 0 0
1619 15 C 197 6.1173 6.1173 -36.7038 0 0 0 0 0 0
1620 15 C 197 6.1173 4.0782 -34.6647 0 0 0 0 0 0
1621 15 C 197 4.0782 6.1173 -34.6647 0 0 0 0 0 0
1622 15 C 197 8.1564 4.0782 -36.7038 0 0 0 0 0 0
1623 15 C 197 8.1564 6.1173 -34.6647 0 0 0 0 0 0
1628 15 C 197 0 8.1564 -36.7038 0 0 0 0 0 0
1629 15 C 197 2.0391 8.1564 -34.6647 0 0 0 0 0 0
1630 15 C 197 4.0782 8.1564 -36.7038 0 0 0 0 0 0
1631 15 C 197 6.1173 8.1564 -34.6647 0 0 0 0 0 0
1632 15 C 197 8.1564 8.1564 -36.7038 0 0 0 0 0 0
1678 15 C 197 2.0391 2.0391 -32.6256 0 0 0 0 0 0
1680 15 C 197 0 2.0391 -30.5865 0 0 0 0 0 0
1682 15 C 197 6.1173 2.0391 -32.6256 0 0 0 0 0 0
1684 15 C 197 4.0782 2.0391 -30.5865 0 0 0 0 0 0
1686 15 C 197 8.1564 2.0391 -30.5865 0 0 0 0 0 0
1695 15 C 197 0 4.0782 -32.6256 0 0 0 0 0 0
1696 15 C 197 2.0391 6.1173 -32.6256 0 0 0 0 0 0
1697 15 C 197 2.0391 4.0782 -30.5865 0 0 0 0 0 0
1698 15 C 197 0 6.1173 -30.5865 0 0 0 0 0 0
1699 15 C 197 4.0782 4.0782 -32.6256 0 0 0 0 0 0
1700 15 C 197 6.1173 6.1173 -32.6256 0 0 0 0 0 0
1701 15 C 197 6.1173 4.0782 -30.5865 0 0 0 0 0 0
1702 15 C 197 4.0782 6.1173 -30.5865 0 0 0 0 0 0
1703 15 C 197 8.1564 4.0782 -32.6256 0 0 0 0 0 0
1704 15 C 197 8.1564 6.1173 -30.5865 0 0 0 0 0 0
1709 15 C 197 0 8.1564 -32.6256 0 0 0 0 0 0
1710 15 C 197 2.0391 8.1564 -30.5865 0 0 0 0 0 0
1711 15 C 197 4.0782 8.1564 -32.6256 0 0 0 0 0 0
1712 15 C 197 6.1173 8.1564 -30.5865 0 0 0 0 0 0
1713 15 C 197 8.1564 8.1564 -32.6256 0 0 0 0 0 0
1714 15 C 197 -8.1564 -8.1564 -28.5474 0 0 0 0 0 0
1715 15 C 197 -6.1173 -6.1173 -28.5474 0 0 0 0 0 0
1716 15 C 197 -6.1173 -8.1564 -26.5083 0 0 0 0 0 0
1717 15 C 197 -8.1564 -6.1173 -26.5083 0 0 0 0 0 0
1718 15 C 197 -4.0782 -8.1564 -28.5474 0 0 0 0 0 0
1719 15 C 197 -2.0391 -6.1173 -28.5474 0 0 0 0 0 0
1720 15 C 197 -2.0391 -8.1564 -26.5083 0 0 0 0 0 0
1721 15 C 197 -4.0782 -6.1173 -26.5083 0 0 0 0 0 0
1732 15 C 197 -8.1564 -4.0782 -28.5474 0 0 0 0 0 0
1733 15 C 197 -6.1173 -2.0391 -28.5474 0 0 0 0 0 0
1734 15 C 197 -6.1173 -4.0782 -26.5083 0 0 0 0 0 0
1735 15 C 197 -8.1564 -2.0391 -26.5083 0 0 0 0 0 0
1736 15 C 197 -4.0782 -4.0782 -28.5474 0 0 0 0 0 0
1737 15 C 197 -2.0391 -2.0391 -28.5474 0 0 0 0 0 0
1738 15 C 197 -2.0391 -4.0782 -26.5083 0 0 0 0 0 0
1739 15 C 197 -4.0782 -2.0391 -26.5083 0 0 0 0 0 0
1750 15 C 197 -8.1564 0 -28.5474 0 0 0 0 0 0
1752 15 C 197 -6.1173 0 -26.5083 0 0 0 0 0 0
1754 15 C 197 -4.0782 0 -28.5474 0 0 0 0 0 0
1756 15 C 197 -2.0391 0 -26.5083 0 0 0 0 0 0
1795 15 C 197 -8.1564 -8.1564 -24.4692 0 0 0 0 0 0
1796 15 C 197 -6.1173 -6.1173 -24.4692 0 0 0 0 0 0
1797 15 C 197 -4.0782 -8.1564 -24.4692 0 0 0 0 0 0
1798 15 C 197 -2.0391 -6.1173 -24.4692 0 0 0 0 0 0
1804 15 C 197 -8.1564 -4.0782 -24.4692 0 0 0 0 0 0
1805 15 C 197 -6.1173 -2.0391 -24.4692 0 0 0 0 0 0
1806 15 C 197 -4.0782 -4.0782 -24.4692 0 0 0 0 0 0
1807 15 C 197 -2.0391 -2.0391 -24.4692 0 0 0 0 0 0
1813 15 C 197 -8.1564 0 -24.4692 0 0 0 0 0 0
1815 15 C 197 -4.0782 0 -24.4692 0 0 0 0 0 0
23 3 C 1.008 3.11653 -0.48764 -22.7656 0 0 0 0 0 0
1722 15 C 197 0 -8.1564 -28.5474 0 0 0 0 0 0
1723 15 C 197 2.0391 -6.1173 -28.5474 0 0 0 0 0 0
1724 15 C 197 2.0391 -8.1564 -26.5083 0 0 0 0 0 0
1725 15 C 197 0 -6.1173 -26.5083 0 0 0 0 0 0
1726 15 C 197 4.0782 -8.1564 -28.5474 0 0 0 0 0 0
1727 15 C 197 6.1173 -6.1173 -28.5474 0 0 0 0 0 0
1728 15 C 197 6.1173 -8.1564 -26.5083 0 0 0 0 0 0
1729 15 C 197 4.0782 -6.1173 -26.5083 0 0 0 0 0 0
1730 15 C 197 8.1564 -8.1564 -28.5474 0 0 0 0 0 0
1731 15 C 197 8.1564 -6.1173 -26.5083 0 0 0 0 0 0
1740 15 C 197 0 -4.0782 -28.5474 0 0 0 0 0 0
1741 15 C 197 2.0391 -2.0391 -28.5474 0 0 0 0 0 0
1742 15 C 197 2.0391 -4.0782 -26.5083 0 0 0 0 0 0
1743 15 C 197 0 -2.0391 -26.5083 0 0 0 0 0 0
1744 15 C 197 4.0782 -4.0782 -28.5474 0 0 0 0 0 0
1745 15 C 197 6.1173 -2.0391 -28.5474 0 0 0 0 0 0
1746 15 C 197 6.1173 -4.0782 -26.5083 0 0 0 0 0 0
1747 15 C 197 4.0782 -2.0391 -26.5083 0 0 0 0 0 0
1748 15 C 197 8.1564 -4.0782 -28.5474 0 0 0 0 0 0
1749 15 C 197 8.1564 -2.0391 -26.5083 0 0 0 0 0 0
1758 15 C 197 0 0 -28.5474 0 0 0 0 0 0
1760 15 C 197 2.0391 0 -26.5083 0 0 0 0 0 0
1762 15 C 197 4.0782 0 -28.5474 0 0 0 0 0 0
1764 15 C 197 6.1173 0 -26.5083 0 0 0 0 0 0
1766 15 C 197 8.1564 0 -28.5474 0 0 0 0 0 0
1799 15 C 197 0 -8.1564 -24.4692 0 0 0 0 0 0
1800 15 C 197 2.0391 -6.1173 -24.4692 0 0 0 0 0 0
1801 15 C 197 4.0782 -8.1564 -24.4692 0 0 0 0 0 0
1802 15 C 197 6.1173 -6.1173 -24.4692 0 0 0 0 0 0
1803 15 C 197 8.1564 -8.1564 -24.4692 0 0 0 0 0 0
1808 15 C 197 0 -4.0782 -24.4692 0 0 0 0 0 0
1809 15 C 197 2.0391 -2.0391 -24.4692 0 0 0 0 0 0
1810 15 C 197 4.0782 -4.0782 -24.4692 0 0 0 0 0 0
1811 15 C 197 6.1173 -2.0391 -24.4692 0 0 0 0 0 0
1812 15 C 197 8.1564 -4.0782 -24.4692 0 0 0 0 0 0
1817 15 C 197 0 0 -24.4692 0 0 0 0 0 0
1819 15 C 197 4.0782 0 -24.4692 0 0 0 0 0 0
1821 15 C 197 8.1564 0 -24.4692 0 0 0 0 0 0
1751 15 C 197 -6.1173 2.0391 -28.5474 0 0 0 0 0 0
1753 15 C 197 -8.1564 2.0391 -26.5083 0 0 0 0 0 0
1755 15 C 197 -2.0391 2.0391 -28.5474 0 0 0 0 0 0
1757 15 C 197 -4.0782 2.0391 -26.5083 0 0 0 0 0 0
1768 15 C 197 -8.1564 4.0782 -28.5474 0 0 0 0 0 0
1769 15 C 197 -6.1173 6.1173 -28.5474 0 0 0 0 0 0
1770 15 C 197 -6.1173 4.0782 -26.5083 0 0 0 0 0 0
1771 15 C 197 -8.1564 6.1173 -26.5083 0 0 0 0 0 0
1772 15 C 197 -4.0782 4.0782 -28.5474 0 0 0 0 0 0
1773 15 C 197 -2.0391 6.1173 -28.5474 0 0 0 0 0 0
1774 15 C 197 -2.0391 4.0782 -26.5083 0 0 0 0 0 0
1775 15 C 197 -4.0782 6.1173 -26.5083 0 0 0 0 0 0
1786 15 C 197 -8.1564 8.1564 -28.5474 0 0 0 0 0 0
1787 15 C 197 -6.1173 8.1564 -26.5083 0 0 0 0 0 0
1788 15 C 197 -4.0782 8.1564 -28.5474 0 0 0 0 0 0
1789 15 C 197 -2.0391 8.1564 -26.5083 0 0 0 0 0 0
1814 15 C 197 -6.1173 2.0391 -24.4692 0 0 0 0 0 0
1816 15 C 197 -2.0391 2.0391 -24.4692 0 0 0 0 0 0
1822 15 C 197 -8.1564 4.0782 -24.4692 0 0 0 0 0 0
1823 15 C 197 -6.1173 6.1173 -24.4692 0 0 0 0 0 0
1824 15 C 197 -4.0782 4.0782 -24.4692 0 0 0 0 0 0
1825 15 C 197 -2.0391 6.1173 -24.4692 0 0 0 0 0 0
1831 15 C 197 -8.1564 8.1564 -24.4692 0 0 0 0 0 0
1832 15 C 197 -4.0782 8.1564 -24.4692 0 0 0 0 0 0
1759 15 C 197 2.0391 2.0391 -28.5474 0 0 0 0 0 0
1761 15 C 197 0 2.0391 -26.5083 0 0 0 0 0 0
1763 15 C 197 6.1173 2.0391 -28.5474 0 0 0 0 0 0
1765 15 C 197 4.0782 2.0391 -26.5083 0 0 0 0 0 0
1767 15 C 197 8.1564 2.0391 -26.5083 0 0 0 0 0 0
1776 15 C 197 0 4.0782 -28.5474 0 0 0 0 0 0
1777 15 C 197 2.0391 6.1173 -28.5474 0 0 0 0 0 0
1778 15 C 197 2.0391 4.0782 -26.5083 0 0 0 0 0 0
1779 15 C 197 0 6.1173 -26.5083 0 0 0 0 0 0
1780 15 C 197 4.0782 4.0782 -28.5474 0 0 0 0 0 0
1781 15 C 197 6.1173 6.1173 -28.5474 0 0 0 0 0 0
1782 15 C 197 6.1173 4.0782 -26.5083 0 0 0 0 0 0
1783 15 C 197 4.0782 6.1173 -26.5083 0 0 0 0 0 0
1784 15 C 197 8.1564 4.0782 -28.5474 0 0 0 0 0 0
1785 15 C 197 8.1564 6.1173 -26.5083 0 0 0 0 0 0
1790 15 C 197 0 8.1564 -28.5474 0 0 0 0 0 0
1791 15 C 197 2.0391 8.1564 -26.5083 0 0 0 0 0 0
1792 15 C 197 4.0782 8.1564 -28.5474 0 0 0 0 0 0
1793 15 C 197 6.1173 8.1564 -26.5083 0 0 0 0 0 0
1794 15 C 197 8.1564 8.1564 -28.5474 0 0 0 0 0 0
1818 15 C 197 2.0391 2.0391 -24.4692 0 0 0 0 0 0
1820 15 C 197 6.1173 2.0391 -24.4692 0 0 0 0 0 0
1826 15 C 197 0 4.0782 -24.4692 0 0 0 0 0 0
1827 15 C 197 2.0391 6.1173 -24.4692 0 0 0 0 0 0
1828 15 C 197 4.0782 4.0782 -24.4692 0 0 0 0 0 0
1829 15 C 197 6.1173 6.1173 -24.4692 0 0 0 0 0 0
1830 15 C 197 8.1564 4.0782 -24.4692 0 0 0 0 0 0
1833 15 C 197 0 8.1564 -24.4692 0 0 0 0 0 0
1834 15 C 197 4.0782 8.1564 -24.4692 0 0 0 0 0 0
1835 15 C 197 8.1564 8.1564 -24.4692 0 0 0 0 0 0
1 10 C 14.007 -2.874 -0.28 -19.17 0 0 0 0 0 0
2 3 C 1.008 -3.90769 -0.232733 -19.0658 0 0 0 0 0 0
3 3 C 1.008 -2.43206 -0.316465 -18.2293 0 0 0 0 0 0
4 3 C 1.008 -2.61828 -1.1338 -19.7059 0 0 0 0 0 0
10 8 C 12.011 -0.66 -0.373 -21.307 0 0 0 0 0 0
11 1 C 1.008 -1.29011 -0.213261 -22.2076 0 0 0 0 0 0
12 1 C 1.008 -0.939866 -1.34085 -20.8395 0 0 0 0 0 0
30 13 C 22.99 -10.067 -9.951 -20.766 0 0 0 1 1 0
115 12 C 15.999 -8.475 -7.624 -17.194 0 0 0 0 0 0
116 4 C 1.008 -8.1726 -8.41247 -17.6447 0 0 0 0 0 0
117 4 C 1.008 -9.22748 -7.9155 -16.6792 0 0 0 0 0 0
160 12 C 15.999 -4.861 -7.169 -20.088 0 0 0 0 0 0
161 4 C 1.008 -4.52204 -6.48098 -19.5153 0 0 0 0 0 0
162 4 C 1.008 -5.74421 -7.33996 -19.761 0 0 0 0 0 0
493 12 C 15.999 -5.617 -9.705 -18.774 0 0 0 0 0 0
494 4 C 1.008 -5.14579 -8.91853 -19.0491 0 0 0 0 0 0
495 4 C 1.008 -6.44209 -9.67206 -19.2581 0 0 0 0 0 0
919 12 C 15.999 -7.749 -9.011 -20.442 0 0 0 0 0 0
920 4 C 1.008 -7.91531 -9.85613 -20.8595 0 0 0 0 0 0
921 4 C 1.008 -8.39677 -8.42118 -20.8277 0 0 0 0 0 0
937 12 C 15.999 -3.186 -3.8 -20.385 0 0 0 0 0 0
938 4 C 1.008 -3.53138 -4.67103 -20.5806 0 0 0 0 0 0
939 4 C 1.008 -3.41251 -3.65267 -19.4667 0 0 0 0 0 0
1030 12 C 15.999 -9.472 -2.9 -17.184 0 0 0 0 0 0
1032 4 C 1.008 -9.24846 -3.45553 -16.4372 0 0 0 0 0 0
1045 12 C 15.999 -7.507 -4.537 -16.64 0 0 0 0 0 0
1046 4 C 1.008 -8.27895 -4.05824 -16.9419 0 0 0 0 0 0
1047 4 C 1.008 -7.54137 -5.36941 -17.1113 0 0 0 0 0 0
1144 12 C 15.999 -0.292 -8.189 -20.021 0 0 0 0 0 0
1145 4 C 1.008 -1.22882 -8.20737 -20.2166 0 0 0 0 0 0
1146 4 C 1.008 -0.187788 -7.45572 -19.4146 0 0 0 0 0 0
1330 12 C 15.999 -6.66 -2.665 -19.26 0 0 0 0 0 0
1331 4 C 1.008 -7.4631 -2.66704 -18.7392 0 0 0 0 0 0
1332 4 C 1.008 -6.11401 -3.34292 -18.8618 0 0 0 0 0 0
1357 12 C 15.999 -9.941 -9.087 -16.432 0 0 0 0 0 0
1387 12 C 15.999 -6.447 -6.599 -18.517 0 0 0 0 0 0
1388 4 C 1.008 -7.10578 -6.36205 -17.8642 0 0 0 0 0 0
1389 4 C 1.008 -6.86332 -7.28371 -19.0405 0 0 0 0 0 0
1435 12 C 15.999 -3.847 -6.306 -15.805 0 0 0 0 0 0
1436 4 C 1.008 -3.91015 -7.18525 -15.4319 0 0 0 0 0 0
1447 12 C 15.999 -4.624 -5.385 -18.226 0 0 0 0 0 0
1448 4 C 1.008 -5.10116 -6.06226 -18.7054 0 0 0 0 0 0
1449 4 C 1.008 -5.23339 -5.09788 -17.546 0 0 0 0 0 0
13 8 C 12.011 0.805 -0.436 -21.734 0 0 0 0 0 0
15 1 C 1.008 0.954712 -1.27216 -22.45 0 0 0 0 0 0
16 9 C 14.007 1.666 -0.664 -20.598 0 0 0 0 0 0
17 3 C 1.008 1.24906 -0.753452 -19.6939 0 0 0 0 0 0
18 5 C 12.011 3.064 -0.766 -20.705 0 0 0 0 0 0
19 9 C 14.007 3.854 -0.986 -19.582 0 0 0 0 0 0
20 3 C 1.008 4.78 -1.34909 -19.6854 0 0 0 0 0 0
21 3 C 1.008 3.49612 -0.781121 -18.671 0 0 0 0 0 0
22 9 C 14.007 3.673 -0.646 -21.95 0 0 0 0 0 0
24 3 C 1.008 4.66724 -0.718101 -22.0293 0 0 0 0 0 0
83 4 C 1.008 4.14376 -9.79831 -15.3297 0 0 0 0 1 0
385 12 C 15.999 9.325 -0.635 -18.563 0 0 0 0 0 0
387 4 C 1.008 8.80979 -0.586865 -17.7577 0 0 0 0 0 0
517 12 C 15.999 5.908 -9.511 -15.671 0 0 0 0 0 0
601 12 C 15.999 8.913 -7.703 -16.224 0 0 0 0 0 0
602 4 C 1.008 8.74829 -7.63261 -15.2837 0 0 0 0 0 0
603 4 C 1.008 8.8388 -8.63877 -16.4112 0 0 0 0 0 0
709 12 C 15.999 9.249 -5.583 -16.713 0 0 0 0 0 0
710 4 C 1.008 8.55158 -6.23833 -16.7322 0 0 0 0 0 0
711 4 C 1.008 10.0084 -6.05088 -16.3658 0 0 0 0 0 0
871 12 C 15.999 7.722 -3.618 -17.694 0 0 0 0 0 0
872 4 C 1.008 8.49531 -3.0607 -17.7814 0 0 0 0 0 0
873 4 C 1.008 8.05709 -4.43842 -17.3323 0 0 0 0 0 0
1031 4 C 1.008 9.8961 -2.47593 -16.9307 0 0 0 -1 0 0
1168 12 C 15.999 5.474 -3.712 -20.728 0 0 0 0 0 0
1169 4 C 1.008 5.03844 -4.36331 -20.1782 0 0 0 0 0 0
1170 4 C 1.008 6.21754 -3.41412 -20.2039 0 0 0 0 0 0
1189 12 C 15.999 2.037 -7.422 -18.958 0 0 0 0 0 0
1190 4 C 1.008 2.59954 -7.86585 -18.3233 0 0 0 0 0 0
1191 4 C 1.008 1.29878 -8.01841 -19.0827 0 0 0 0 0 0
1358 4 C 1.008 9.77723 -9.87079 -16.717 0 0 0 -1 0 0
1359 4 C 1.008 9.94911 -8.94192 -15.534 0 0 0 -1 0 0
1468 12 C 15.999 9.193 -9.748 -19.038 0 0 0 0 0 0
1469 4 C 1.008 8.39358 -9.96116 -18.5566 0 0 0 0 0 0
1470 4 C 1.008 9.59599 -9.04161 -18.5332 0 0 0 0 0 0
1486 12 C 15.999 3.665 -8.702 -17.124 0 0 0 0 0 0
1487 4 C 1.008 3.14462 -9.29539 -16.5824 0 0 0 0 0 0
1488 4 C 1.008 4.55916 -8.80043 -16.7968 0 0 0 0 0 0
5 7 C 12.011 -2.401 0.904 -19.885 0 0 0 0 0 0
6 2 C 1.008 -2.52043 1.75151 -19.2266 0 0 0 0 0 0
7 8 C 12.011 -0.93 0.76 -20.304 0 0 0 0 0 0
8 1 C 1.008 -0.324546 0.570896 -19.3927 0 0 0 0 0 0
9 1 C 1.008 -0.602404 1.7169 -20.762 0 0 0 0 0 0
25 6 C 12.011 -3.312 1.131 -21.078 0 0 0 0 0 0
26 11 C 15.999 -4.26448 0.325723 -21.2566 0 0 0 0 0 0
27 11 C 15.999 -3.06946 2.11318 -21.8291 0 0 0 0 0 0
40 12 C 15.999 -3.154 7.962 -19.474 0 0 0 0 0 0
41 4 C 1.008 -2.39695 8.12137 -20.0377 0 0 0 0 0 0
42 4 C 1.008 -2.77992 7.62959 -18.658 0 0 0 0 0 0
64 12 C 15.999 -6.936 4.201 -16.355 0 0 0 0 0 0
65 4 C 1.008 -7.23608 3.31311 -16.1605 0 0 0 0 0 0
66 4 C 1.008 -6.16594 4.32121 -15.7993 0 0 0 0 0 0
124 12 C 15.999 -5.52 7.67 -18.261 0 0 0 0 0 0
125 4 C 1.008 -6.18229 7.08522 -18.6293 0 0 0 0 0 0
126 4 C 1.008 -4.77917 7.6032 -18.8634 0 0 0 0 0 0
373 12 C 15.999 -1.676 6.936 -17.015 0 0 0 0 0 0
374 4 C 1.008 -1.03285 6.34726 -16.6201 0 0 0 0 0 0
375 4 C 1.008 -2.01666 7.44671 -16.2806 0 0 0 0 0 0
508 12 C 15.999 -8.933 7.458 -15.277 0 0 0 0 0 0
510 4 C 1.008 -8.99252 6.72136 -15.8853 0 0 0 0 0 0
616 12 C 15.999 -9.016 5.059 -18.434 0 0 0 0 0 0
617 4 C 1.008 -9.4276 4.19517 -18.4093 0 0 0 0 0 0
618 4 C 1.008 -8.29214 4.99787 -17.8107 0 0 0 0 0 0
895 12 C 15.999 -8.521 7.748 -19.16 0 0 0 0 0 0
896 4 C 1.008 -7.59857 7.81934 -18.9145 0 0 0 0 0 0
897 4 C 1.008 -8.75946 6.84791 -18.9382 0 0 0 0 0 0
1210 12 C 15.999 -7.386 1.85 -15.565 0 0 0 0 0 0
1212 4 C 1.008 -7.98211 1.10258 -15.6124 0 0 0 0 0 0
1276 12 C 15.999 -9.685 1.813 -17.063 0 0 0 0 0 0
1277 4 C 1.008 -9.98326 1.03849 -16.5861 0 0 0 0 0 0
1278 4 C 1.008 -8.83393 2.01968 -16.6767 0 0 0 0 0 0
1426 12 C 15.999 -3.992 9.379 -16.905 0 0 0 0 0 0
1427 4 C 1.008 -3.80895 8.89569 -17.7107 0 0 0 0 0 0
1428 4 C 1.008 -4.88053 9.11662 -16.6644 0 0 0 0 0 0
14 1 C 1.008 1.1042 0.525909 -22.2024 0 0 0 0 0 0
289 12 C 15.999 7.789 5.224 -16.294 0 0 0 0 0 0
290 4 C 1.008 7.50808 6.13885 -16.2746 0 0 0 0 0 0
291 4 C 1.008 7.00852 4.72801 -16.0469 0 0 0 0 0 0
349 12 C 15.999 6.693 4.593 -20.505 0 0 0 0 0 0
350 4 C 1.008 6.73155 3.96626 -19.7825 0 0 0 0 0 0
351 4 C 1.008 5.8288 4.997 -20.4264 0 0 0 0 0 0
386 4 C 1.008 9.29671 0.252909 -18.9194 0 0 0 0 0 0
448 12 C 15.999 7.7 2.908 -16.122 0 0 0 0 0 0
449 4 C 1.008 7.77016 3.83403 -16.3539 0 0 0 0 0 0
733 12 C 15.999 5.166 6.928 -15.678 0 0 0 0 0 0
734 4 C 1.008 4.24504 7.03289 -15.4391 0 0 0 0 0 0
735 4 C 1.008 5.50116 7.82244 -15.7402 0 0 0 0 0 0
814 12 C 15.999 4.173 5.321 -19.739 0 0 0 0 0 0
815 4 C 1.008 3.29074 4.95481 -19.6776 0 0 0 0 0 0
816 4 C 1.008 4.08263 6.21933 -19.4211 0 0 0 0 0 0
1042 12 C 15.999 9.064 8.484 -19.631 0 0 0 0 0 0
1043 4 C 1.008 9.22521 8.40296 -18.691 0 0 0 0 0 0
1044 4 C 1.008 8.11136 8.44428 -19.7154 0 0 0 0 0 0
1159 12 C 15.999 2.476 4.886 -16.51 0 0 0 0 0 0
1160 4 C 1.008 3.42566 4.99588 -16.558 0 0 0 0 0 0
1161 4 C 1.008 2.16812 5.66142 -16.0408 0 0 0 0 0 0
1204 12 C 15.999 9.199 8.151 -16.047 0 0 0 0 0 0
1205 4 C 1.008 8.78546 7.32084 -16.2837 0 0 0 0 0 0
1381 12 C 15.999 8.954 2.38 -19.332 0 0 0 0 0 0
1382 4 C 1.008 9.31088 3.26429 -19.415 0 0 0 0 0 0
1383 4 C 1.008 8.04672 2.45871 -19.6267 0 0 0 0 0 0
1417 12 C 15.999 5.524 8.251 -19.044 0 0 0 0 0 0
1418 4 C 1.008 5.44895 7.33904 -19.325 0 0 0 0 0 0
1419 4 C 1.008 4.63343 8.50003 -18.7968 0 0 0 0 0 0
1513 12 C 15.999 7.751 0.626 -16.607 0 0 0 0 0 0
1514 4 C 1.008 8.05899 1.51644 -16.7758 0 0 0 0 0 0
1515 4 C 1.008 7.11686 0.722062 -15.8965 0 0 0 0 0 0
154 12 C 15.999 -9.32 -1.833 -9.263 0 0 0 0 0 0
155 4 C 1.008 -9.35646 -1.50889 -8.36308 0 0 0 0 0 0
156 4 C 1.008 -8.69042 -2.5534 -9.2333 0 0 0 0 0 0
217 12 C 15.999 -6.468 -6.361 -11.671 0 0 0 0 0 0
218 4 C 1.008 -6.10105 -7.22154 -11.4684 0 0 0 0 0 0
219 4 C 1.008 -5.80327 -5.74032 -11.3725 0 0 0 0 0 0
223 12 C 15.999 -8.612 -6.218 -14.531 0 0 0 0 0 0
224 4 C 1.008 -8.87938 -6.88034 -13.8938 0 0 0 0 0 0
225 4 C 1.008 -7.9547 -6.65639 -15.0714 0 0 0 0 0 0
295 12 C 15.999 -7.678 -8.296 -8.236 0 0 0 0 0 0
598 12 C 15.999 -9.557 -2.476 -12.193 0 0 0 0 0 0
599 4 C 1.008 -9.19634 -1.82371 -11.5924 0 0 0 0 0 0
640 12 C 15.999 -8.036 -9.364 -10.308 0 0 0 0 0 0
641 4 C 1.008 -7.57627 -8.96508 -9.56926 0 0 0 0 0 0
642 4 C 1.008 -8.96276 -9.29813 -10.0778 0 0 0 0 0 0
667 12 C 15.999 -2.364 -2.695 -11.534 0 0 0 0 0 0
668 4 C 1.008 -1.46182 -2.69564 -11.2141 0 0 0 0 0 0
669 4 C 1.008 -2.75616 -3.47804 -11.1476 0 0 0 0 0 0
682 12 C 15.999 -1.786 -5.977 -8.678 0 0 0 0 0 0
683 4 C 1.008 -2.64004 -6.35312 -8.46496 0 0 0 0 0 0
687 4 C 1.008 -0.323299 -5.31386 -8.82165 0 0 0 0 0 0
817 12 C 15.999 -4.018 -5.05 -10.54 0 0 0 0 0 0
818 4 C 1.008 -4.78087 -5.50213 -10.1797 0 0 0 0 0 0
819 4 C 1.008 -3.49981 -4.80522 -9.77332 0 0 0 0 0 0
967 12 C 15.999 -7.014 -1.543 -11.947 0 0 0 0 0 0
968 4 C 1.008 -7.25733 -0.695022 -11.5756 0 0 0 0 0 0
969 4 C 1.008 -7.84782 -1.99152 -12.0878 0 0 0 0 0 0
1093 12 C 15.999 -5.484 -3.793 -14.777 0 0 0 0 0 0
1094 4 C 1.008 -6.41203 -3.82119 -15.0098 0 0 0 0 0 0
1095 4 C 1.008 -5.4641 -3.36413 -13.9215 0 0 0 0 0 0
1126 12 C 15.999 -1.214 -2.801 -8.203 0 0 0 0 0 0
1127 4 C 1.008 -1.66325 -3.62307 -8.39952 0 0 0 0 0 0
1228 12 C 15.999 -2.672 -4.097 -14.295 0 0 0 0 0 0
1229 4 C 1.008 -3.61013 -3.99558 -14.4558 0 0 0 0 0 0
1230 4 C 1.008 -2.42741 -3.31497 -13.8002 0 0 0 0 0 0
1249 12 C 15.999 -5.295 -9.569 -11.009 0 0 0 0 0 0
1250 4 C 1.008 -6.20648 -9.34199 -10.8249 0 0 0 0 0 0
1261 12 C 15.999 -0.126 -0.486 -10.761 0 0 0 0 0 0
1262 4 C 1.008 -0.169937 -1.29786 -10.2558 0 0 0 0 0 0
1297 12 C 15.999 -9.718 -4.35 -14.183 0 0 0 0 0 0
1298 4 C 1.008 -9.52009 -3.81238 -13.4162 0 0 0 0 0 0
1299 4 C 1.008 -9.11875 -5.0934 -14.116 0 0 0 0 0 0
1437 4 C 1.008 -3.43232 -5.78331 -15.1187 0 0 0 0 0 0
1438 12 C 15.999 -5.193 -2.693 -12.537 0 0 0 0 0 0
1439 4 C 1.008 -5.78055 -2.14215 -12.0197 0 0 0 0 0 0
1440 4 C 1.008 -4.39908 -2.76124 -12.0067 0 0 0 0 0 0
1477 12 C 15.999 -4.882 -2.286 -8.718 0 0 0 0 0 0
1478 4 C 1.008 -5.48716 -2.7753 -8.16068 0 0 0 0 0 0
1479 4 C 1.008 -4.18298 -2.00729 -8.12646 0 0 0 0 0 0
1498 12 C 15.999 -8.722 -0.414 -14.48 0 0 0 0 0 0
1499 4 C 1.008 -9.10427 -1.25893 -14.243 0 0 0 0 0 0
1502 4 C 1.008 -2.4555 -9.26145 -8.25213 0 0 0 0 0 0
1503 4 C 1.008 -1.26609 -8.33 -8.15425 0 0 0 0 0 0
52 12 C 15.999 4.89 -8.903 -13.195 0 0 0 0 0 0
53 4 C 1.008 4.65333 -8.34714 -12.4525 0 0 0 0 0 0
54 4 C 1.008 4.61061 -9.78113 -12.936 0 0 0 0 0 0
205 12 C 15.999 0.869 -4.985 -11.409 0 0 0 0 0 0
206 4 C 1.008 1.08591 -5.89342 -11.1993 0 0 0 0 0 0
207 4 C 1.008 0.607696 -4.60133 -10.5719 0 0 0 0 0 0
253 12 C 15.999 6.566 -7.246 -10.372 0 0 0 0 0 0
254 4 C 1.008 6.32969 -6.55208 -9.75648 0 0 0 0 0 0
255 4 C 1.008 6.1828 -8.03937 -9.9979 0 0 0 0 0 0
310 12 C 15.999 1.291 -2.277 -12.88 0 0 0 0 0 0
311 4 C 1.008 0.86674 -1.6834 -12.2604 0 0 0 0 0 0
312 4 C 1.008 1.1973 -3.14367 -12.4846 0 0 0 0 0 0
382 12 C 15.999 7.86 -4.059 -9.552 0 0 0 0 0 0
383 4 C 1.008 7.81732 -3.44392 -8.81982 0 0 0 0 0 0
384 4 C 1.008 7.17972 -4.70519 -9.36255 0 0 0 0 0 0
430 12 C 15.999 4.376 -4.039 -11.473 0 0 0 0 0 0
431 4 C 1.008 4.27223 -3.64067 -10.6088 0 0 0 0 0 0
432 4 C 1.008 4.8244 -4.86744 -11.3031 0 0 0 0 0 0
518 4 C 1.008 5.29685 -9.20857 -14.9992 0 0 0 0 0 0
519 4 C 1.008 6.68207 -9.79119 -15.1826 0 0 0 0 0 0
580 12 C 15.999 5.383 -6.397 -13.267 0 0 0 0 0 0
581 4 C 1.008 6.31767 -6.40548 -13.0607 0 0 0 0 0 0
582 4 C 1.008 5.12665 -7.31918 -13.257 0 0 0 0 0 0
600 4 C 1.008 9.70259 -2.52462 -11.9651 0 0 0 -1 0 0
685 12 C 15.999 0.471 -4.983 -9.241 0 0 0 0 0 0
686 4 C 1.008 1.01275 -4.67072 -8.51628 0 0 0 0 0 0
766 12 C 15.999 9.063 -9.102 -11.375 0 0 0 0 0 0
767 4 C 1.008 8.79395 -8.32587 -10.8836 0 0 0 0 0 0
768 4 C 1.008 9.30235 -9.74039 -10.7031 0 0 0 0 0 0
769 12 C 15.999 1.529 -7.515 -11.13 0 0 0 0 0 0
770 4 C 1.008 2.14065 -8.18281 -10.8199 0 0 0 0 0 0
771 4 C 1.008 1.93606 -6.68419 -10.8845 0 0 0 0 0 0
828 4 C 1.008 4.8075 -0.218328 -12.3672 0 0 0 0 0 0
1102 12 C 15.999 6.155 -1.333 -9.249 0 0 0 0 0 0
1103 4 C 1.008 5.46572 -1.87477 -8.86479 0 0 0 0 0 0
1104 4 C 1.008 6.91306 -1.47064 -8.68099 0 0 0 0 0 0
1162 12 C 15.999 8.105 -6.481 -12.662 0 0 0 0 0 0
1163 4 C 1.008 8.81049 -6.64735 -12.0368 0 0 0 0 0 0
1164 4 C 1.008 7.30274 -6.66242 -12.1724 0 0 0 0 0 0
1177 12 C 15.999 4.038 -8.755 -9.812 0 0 0 0 0 0
1178 4 C 1.008 4.4065 -8.17268 -9.14766 0 0 0 0 0 0
1179 4 C 1.008 3.24893 -9.11359 -9.40578 0 0 0 0 0 0
1423 12 C 15.999 5.676 -5.614 -8.373 0 0 0 0 0 0
1450 12 C 15.999 1.672 -9.656 -14.25 0 0 0 0 0 0
1451 4 C 1.008 2.42067 -9.5274 -13.6676 0 0 0 0 0 0
1452 4 C 1.008 0.962463 -9.93425 -13.6709 0 0 0 0 0 0
1480 12 C 15.999 9.235 -9.482 -9.215 0 0 0 0 0 0
1481 4 C 1.008 9.67464 -9.91175 -8.48134 0 0 0 0 0 0
1482 4 C 1.008 8.53251 -8.9738 -8.80946 0 0 0 0 0 0
28 14 C 35.45 -6.001 7.458 -14.28 0 0 0 0 0 0
166 12 C 15.999 -1.699 2.818 -9.805 0 0 0 0 0 0
167 4 C 1.008 -1.08629 2.10652 -9.61896 0 0 0 0 0 0
168 4 C 1.008 -1.51058 3.47768 -9.1375 0 0 0 0 0 0
256 12 C 15.999 -5.436 1.424 -8.355 0 0 0 0 0 0
257 4 C 1.008 -4.82374 0.727867 -8.59326 0 0 0 0 0 0
274 12 C 15.999 -9.128 3.187 -10.213 0 0 0 0 0 0
275 4 C 1.008 -8.88521 3.69016 -9.43575 0 0 0 0 0 0
276 4 C 1.008 -8.43574 3.37529 -10.8467 0 0 0 0 0 0
398 4 C 1.008 -0.0302632 8.29174 -12.2767 0 0 0 0 0 0
475 12 C 15.999 -5.301 1.665 -12.409 0 0 0 0 0 0
476 4 C 1.008 -6.16054 1.56846 -11.999 0 0 0 0 0 0
477 4 C 1.008 -4.88646 0.808902 -12.3018 0 0 0 0 0 0
478 12 C 15.999 -3.029 9.806 -10.772 0 0 0 0 0 0
479 4 C 1.008 -3.61876 9.14124 -10.4163 0 0 0 0 0 0
480 4 C 1.008 -2.20074 9.66159 -10.3144 0 0 0 0 0 0
502 12 C 15.999 -8.239 7.319 -11.132 0 0 0 0 0 0
503 4 C 1.008 -8.32337 6.61228 -10.492 0 0 0 0 0 0
504 4 C 1.008 -7.3414 7.24362 -11.4558 0 0 0 0 0 0
505 12 C 15.999 -6.949 4.907 -9.63 0 0 0 0 0 0
506 4 C 1.008 -7.50342 4.19641 -9.30766 0 0 0 0 0 0
507 4 C 1.008 -6.33372 5.07409 -8.91604 0 0 0 0 0 0
509 4 C 1.008 -9.07604 7.06892 -14.4142 0 0 0 0 0 0
529 12 C 15.999 -3.566 4.925 -11.433 0 0 0 0 0 0
530 4 C 1.008 -3.51967 4.0561 -11.8319 0 0 0 0 0 0
531 4 C 1.008 -2.7677 5.36562 -11.7242 0 0 0 0 0 0
532 12 C 15.999 -1.141 4.806 -12.94 0 0 0 0 0 0
533 4 C 1.008 -0.870225 3.94754 -13.2655 0 0 0 0 0 0
534 4 C 1.008 -0.674491 4.9061 -12.1102 0 0 0 0 0 0
673 12 C 15.999 -3.029 7.764 -8.959 0 0 0 0 0 0
674 4 C 1.008 -3.54995 7.07194 -8.5517 0 0 0 0 0 0
675 4 C 1.008 -2.16726 7.68841 -8.54923 0 0 0 0 0 0
727 12 C 15.999 -6.964 0.804 -10.47 0 0 0 0 0 0
728 4 C 1.008 -6.30975 1.08107 -9.82858 0 0 0 0 0 0
729 4 C 1.008 -7.67963 0.447033 -9.944 0 0 0 0 0 0
799 12 C 15.999 -5.788 6.956 -11.882 0 0 0 0 0 0