1835
Atoms. Timestep: 40000
N -3.17831 -2.18954 -21.5833
H -3.01097 -3.23396 -21.3914
H -2.85561 -1.84175 -22.5075
H -4.19715 -1.97557 -21.6323
C -2.45525 -1.53927 -20.4166
H -3.20107 -1.25271 -19.738
C -1.52352 -2.57757 -19.8568
H -2.24245 -3.30523 -19.4006
H -1.0828 -2.09019 -19.0085
C -0.411002 -3.41876 -20.5969
H -0.793657 -3.94392 -21.499
H -0.147194 -4.20443 -19.8314
C 0.861156 -2.62391 -21.1203
H 1.27817 -1.89083 -20.3972
H 0.532798 -2.05415 -22.0436
N 1.95 -3.63439 -21.3905
H 1.78112 -4.60672 -21.2197
C 3.27658 -3.332 -21.4171
N 4.17111 -4.29204 -21.2848
H 5.12028 -4.02001 -21.201
H 3.89773 -5.23525 -21.1777
N 3.70015 -2.08372 -21.6187
H 3.03547 -1.34521 -21.4581
H 4.70778 -2.0384 -21.5278
C -1.63822 -0.318386 -20.8116
O -1.70581 0.187751 -21.9716
O -0.979641 0.287948 -19.947
Cl 7.89429 0.32647 -13.9301
Cl 6.04944 9.4356 0.0245215
Na 5.9928 -0.875139 -12.4891
O 3.98775 5.82091 9.10654
H 3.65976 5.41604 9.9097
H 3.4562 6.60995 9.00116
O -0.835559 6.30869 -6.68577
H -1.45045 5.58107 -6.77914
H -1.37977 7.09312 -6.7546
O -6.75585 0.678254 -1.54319
H -7.32615 1.38913 -1.83591
H -6.80647 0.0266156 -2.24268
O -5.48099 -7.45364 -21.4631
H -4.83803 -8.14386 -21.3006
H -6.26491 -7.74082 -20.9948
O -7.67838 -0.296906 -14.5444
H -7.19581 0.226438 -13.9044
H -8.41272 0.259284 -14.8046
O -3.67388 -4.97244 10.0393
H -3.63863 -4.01899 9.96231
H -4.14307 -5.12991 10.8588
O -5.03894 0.389216 -11.3057
H -4.12888 0.232792 -11.0535
H -5.37357 -0.475025 -11.5452
O 9.34117 7.03435 -9.84311
H 8.82535 7.72524 -9.42727
H 9.92926 6.72606 -9.15349
O -1.67475 -2.3512 7.61411
H -2.39773 -1.75954 7.82263
H -2.02174 -2.92186 6.92825
O -6.2951 9.78291 13.8497
H -5.75993 -9.62982 13.2945
H -5.87568 9.82317 14.7094
O -0.0113767 9.13125 7.10162
H -0.605698 8.99886 7.84037
H -0.588399 9.29415 6.35528
O -9.89 -9.32749 -13.9948
H -9.85529 -8.81994 -13.1838
H 9.71149 -8.82984 -14.5647
O 3.6827 7.25805 -6.0349
H 2.8963 7.30363 -5.49096
H 3.86417 6.32175 -6.11643
O -9.55487 -7.34251 -0.829464
H -8.84484 -7.95099 -0.624866
H 9.9261 -7.58964 -0.233266
O -3.62393 -2.09163 9.98132
H -3.0378 -1.36268 10.1846
H -3.95577 -1.89563 9.10491
O -5.78586 -2.27042 -14.3213
H -6.5552 -1.74682 -14.5455
H -5.26178 -2.28182 -15.1224
O 0.588238 -4.80445 3.12441
H -0.345144 -4.69262 2.94402
H 0.780658 -4.15771 3.8035
O 8.24139 6.71219 -13.3529
H 8.7494 6.35229 -12.6256
H 7.97156 7.57953 -13.0509
O -0.717172 0.903344 -12.2541
H -1.04265 1.03396 -13.145
H -0.190615 1.68223 -12.0744
O -2.73281 4.22896 -15.2325
H -2.75445 5.07761 -15.6748
H -3.64755 4.04728 -15.0168
O -7.66808 -3.23662 -1.53197
H -8.28544 -3.69496 -2.10221
H -8.19197 -2.55669 -1.10824
O -0.0638621 -3.15937 0.378431
H -0.987696 -2.92497 0.466892
H 0.122278 -3.69636 1.14883
O 0.941796 8.76568 -19.5317
H 0.752126 7.86572 -19.2664
H 0.403224 9.30505 -18.9525
O 0.113348 7.53615 2.54901
H -0.523131 6.82131 2.56018
H 0.698192 7.32541 1.82097
O -6.64307 -7.25856 1.35306
H -7.13959 -7.88236 0.823228
H -7.14368 -6.4446 1.29742
O 3.37696 -3.3802 3.22793
H 3.5412 -4.06129 2.57556
H 2.64502 -3.71533 3.74593
O -4.52745 -1.60195 7.14723
H -4.60292 -0.869095 6.53596
H -5.43066 -1.87673 7.30518
O 0.634277 3.20345 -7.12255
H 0.616378 4.05081 -6.67758
H -0.0413988 2.68728 -6.68282
O 8.09529 -9.09397 -15.5376
H 7.54936 -8.50208 -16.0553
H 7.73055 -9.96332 -15.7033
O -4.62603 -2.34365 -11.8249
H -3.66955 -2.30705 -11.8203
H -4.8605 -2.37437 -12.7527
O -6.17187 7.71071 10.3612
H -5.99047 7.27144 9.53013
H -5.79447 8.58432 10.2582
O -0.441026 -4.24379 -8.38322
H 0.426143 -4.64395 -8.31897
H -0.330975 -3.37076 -8.00638
O -0.395278 -0.564031 -2.87338
H -1.30695 -0.370404 -3.0916
H -0.168036 0.0777052 -2.20034
O 7.384 6.69385 0.282395
H 7.10019 6.02682 0.907654
H 6.67227 7.33386 0.274706
O 8.18718 -2.16899 13.021
H 7.77598 -1.76235 12.2581
H 8.55587 -1.4361 13.5143
O 5.88619 0.412426 12.6645
H 5.46286 1.13202 13.1329
H 5.9667 0.726523 11.7637
O -5.58375 3.3875 -2.83007
H -4.88743 3.75841 -2.28791
H -5.32025 2.47798 -2.97005
O -0.198521 -5.60311 12.6122
H -1.05327 -5.21526 12.4246
H 0.420245 -4.8795 12.5134
O -7.4898 -9.55473 -0.542255
H -6.82213 9.88785 -0.11598
H -8.25757 9.85619 -0.596069
O 6.04854 8.45644 7.06827
H 6.53087 7.87126 7.65249
H 5.54961 9.02408 7.65586
O -2.97204 4.79437 -6.18484
H -2.86632 4.80265 -5.2333
H -3.61819 4.10741 -6.34858
O 3.09921 8.13992 -10.1816
H 3.74216 7.83419 -9.54162
H 3.52801 8.87459 -10.6206
O 7.20073 2.54787 -1.76562
H 6.55036 1.84609 -1.73791
H 7.68509 2.45872 -0.944632
O -4.46089 9.77256 -21.286
H -5.25324 9.62655 -21.8029
H -4.68916 9.47156 -20.4062
O -4.39582 2.70825 12.3975
H -4.93629 3.49054 12.2872
H -4.12745 2.7295 13.3163
O 1.11559 7.55998 -5.19144
H 0.568289 6.89756 -5.61332
H 0.950965 8.36028 -5.69019
O 2.30432 -4.55453 -11.4209
H 2.64242 -4.11373 -10.6413
H 1.45622 -4.90549 -11.1493
O -2.33568 5.62951 -19.4866
H -2.19942 6.56786 -19.6177
H -3.0039 5.57716 -18.8031
O 7.05522 0.77801 -4.12697
H 6.88698 0.869908 -3.18893
H 7.97786 0.52912 -4.18202
O 0.701469 -7.93136 -19.097
H 0.1136 -7.24665 -18.7778
H 0.901945 -8.45594 -18.3216
O -9.83382 -3.49491 12.4734
H 9.57226 -2.97336 12.6546
H -10.0734 -4.3846 12.7329
O -7.29685 -9.15553 -19.6137
H -7.55039 -9.62043 -20.4113
H -6.92292 -9.83257 -19.0497
O 7.58251 -0.0892494 1.9747
H 7.57069 -0.0664855 2.9318
H 7.02648 0.643669 1.71027
O -8.82775 2.14574 -2.77529
H -9.56133 2.7596 -2.81076
H -8.92606 1.60863 -3.56167
O 5.38917 1.70142 -18.8947
H 4.51898 1.37121 -18.6712
H 5.4297 1.64417 -19.8496
O -4.32379 -8.81838 -11.0436
H -5.13587 -9.05611 -11.4912
H -3.89596 -8.19956 -11.6356
O 0.116476 1.76938 -9.32662
H 0.320206 2.49499 -8.73637
H 0.38017 2.08244 -10.1921
O -4.38223 -0.631436 3.54475
H -5.31806 -0.772395 3.68829
H -4.0693 -1.45664 3.17406
O 1.5855 -6.24006 -21.0489
H 2.2351 -6.92512 -21.2068
H 0.753056 -6.70846 -20.9866
O 0.140901 2.2874 -3.4235
H -0.185132 1.55197 -3.94234
H -0.622113 2.85251 -3.30223
O -0.188411 6.17306 13.0007
H 0.381365 6.70788 12.4478
H -0.914804 6.75318 13.2289
O -5.63726 0.250516 -7.85613
H -5.81939 -0.349148 -8.57982
H -5.01349 0.880205 -8.21765
O 4.61907 -2.41398 -15.976
H 3.93246 -2.57144 -16.6242
H 4.14568 -2.20267 -15.1711
O -5.31932 -3.1964 2.66134
H -5.50323 -4.04754 2.26379
H -6.07832 -2.6579 2.43728
O -8.57414 -3.20619 -21.0711
H -9.25636 -3.80917 -20.7757
H -8.53762 -2.5335 -20.391
O 3.82776 -5.75038 12.7174
H 4.25661 -6.11657 11.9437
H 4.53394 -5.32681 13.2055
O 9.83721 0.183241 -8.34887
H 9.66886 -0.529795 -8.96503
H -9.7773 -0.202239 -7.68631
O 2.08643 -9.74045 14.0386
H 1.99961 -9.15252 14.7891
H 2.28513 -9.16206 13.3021
O -6.72504 -1.15006 -3.58041
H -7.35568 -1.86659 -3.50882
H -6.21109 -1.3597 -4.36042
O 1.86858 5.69253 -11.1477
H 2.1218 6.44562 -10.6137
H 2.55914 5.62253 -11.807
O -4.50136 -6.34371 -18.8527
H -5.19229 -6.65474 -18.2676
H -4.44133 -5.405 -18.6753
O -0.811568 -8.87643 0.0998631
H -0.492713 -8.34005 0.825887
H -1.61927 -8.44574 -0.180135
O 4.07022 -8.88397 4.04468
H 3.6673 -9.67896 3.69548
H 4.81466 -8.71829 3.46608
O 3.11526 -5.78056 -8.76063
H 3.73265 -5.0497 -8.73051
H 3.55251 -6.48401 -8.28073
O -6.09109 9.22933 -17.7601
H -6.99844 9.13197 -17.4711
H -5.6225 8.5181 -17.3231
O -5.47858 -5.66771 -9.9523
H -4.97898 -5.6849 -10.7688
H -4.82226 -5.51524 -9.27225
O -8.92268 -8.8077 7.35548
H -8.6781 -9.12792 8.22396
H -9.838 -9.06818 7.25265
O -9.75341 8.40303 10.7442
H 9.60103 8.87262 10.7145
H -9.92626 7.57821 10.2902
O 8.4772 -9.44342 7.16636
H 7.93921 9.79831 7.45235
H 8.11494 -9.19799 6.31482
O 7.73585 -5.28723 -2.12008
H 7.37481 -4.74152 -1.42127
H 7.32705 -6.14316 -1.99154
O -2.39104 -1.3717 -7.83989
H -2.41166 -1.6588 -6.92676
H -3.20064 -0.873771 -7.95324
O -9.09328 9.28467 -16.3039
H -9.33629 9.58184 -15.4269
H -9.73591 9.69458 -16.8831
O 9.00713 9.0645 -5.56555
H 8.4361 8.6195 -4.93917
H 9.73495 9.39114 -5.03645
O 4.18507 -0.885093 9.50704
H 4.65686 -0.212989 9.01505
H 3.6674 -0.39565 10.1465
O -5.86266 2.85412 -9.22766
H -5.54657 2.01844 -9.57119
H -5.20214 3.49095 -9.50051
O 5.63934 0.660365 6.45459
H 5.07474 1.43326 6.44473
H 5.50402 0.253376 5.59865
O -6.10957 1.26427 -16.6094
H -6.39308 2.12698 -16.9121
H -6.78855 0.665671 -16.9208
O 3.11642 3.90083 -0.846253
H 3.34205 4.747 -1.23278
H 3.45672 3.94665 0.0474594
O 9.69709 3.3966 -6.33706
H -9.78619 3.36755 -6.98434
H 9.9586 2.76308 -5.66869
O 0.316686 -2.18654 -6.55452
H -0.604357 -2.23357 -6.29815
H 0.756626 -1.79773 -5.79835
O 5.70965 9.50734 -4.6007
H 6.19806 9.86735 -3.86019
H 4.97357 9.04459 -4.20025
O 0.37122 3.25293 10.0805
H 0.187165 4.19202 10.0588
H 0.686328 3.04968 9.19963
O -3.61905 -9.64022 -5.38018
H -4.54329 -9.63306 -5.13121
H -3.62343 -9.48046 -6.32418
O 7.94701 2.2538 -17.6806
H 7.50336 1.67189 -17.0633
H 7.50682 2.09807 -18.5164
O 1.95229 -3.6985 12.612
H 2.25155 -3.5417 11.7162
H 2.63263 -4.2492 12.9995
O 4.82799 -6.56553 -6.97443
H 4.77234 -5.88963 -6.29877
H 4.59107 -7.37581 -6.52314
O -9.58101 -2.98626 7.41539
H 9.97769 -3.65461 7.14416
H -10.0923 -2.37734 7.94844
O 7.64312 9.18504 -8.80959
H 7.36608 9.82459 -9.46583
H 6.82562 8.83832 -8.45214
O 6.16105 4.57596 7.60787
H 5.84979 5.1189 6.88342
H 5.87075 5.03661 8.39532
O -7.23227 -8.77966 3.98574
H -6.3984 -8.90419 4.43904
H -7.04149 -8.98683 3.07068
O -8.80679 2.45824 -18.689
H -9.68237 2.52061 -18.3072
H -8.27738 3.06895 -18.1761
O 7.94826 -6.36368 12.3244
H 7.34439 -5.65387 12.5429
H 7.65235 -6.67584 11.4691
O -2.16211 1.51077 3.80081
H -1.59251 1.95162 4.43139
H -2.63183 0.856658 4.31836
O -2.86476 0.273414 -2.93484
H -2.8523 0.599346 -2.0347
H -3.74051 0.488455 -3.25594
O -1.11985 1.09478 -14.9761
H -0.79047 0.838981 -15.8379
H -2.00101 1.42818 -15.1454
O 3.84326 -8.43406 -5.21028
H 4.68269 -8.77196 -4.89811
H 3.21759 -9.13313 -5.02033
O 2.74176 7.12119 -21.3332
H 2.02954 6.88993 -21.9295
H 2.72496 6.43807 -20.6627
O 2.08982 -5.46634 7.87075
H 2.82087 -4.92612 8.17074
H 1.52222 -5.5489 8.63726
O 3.93641 -7.61718 -21.2286
H 3.87657 -8.47258 -21.6541
H 4.87292 -7.41952 -21.2178
O 1.40249 2.39621 7.78789
H 2.33364 2.60643 7.85871
H 1.32738 1.91337 6.96461
O -2.20789 7.17609 -9.96786
H -2.80298 7.23443 -10.7155
H -2.1337 6.23796 -9.79279
O 1.10492 5.39688 6.73301
H 0.913484 6.18838 6.2298
H 0.863585 4.67744 6.14943
O -9.40394 -1.69203 -0.097157
H 10.074 -2.20908 -0.477654
H -9.84712 -0.994595 0.386079
O 6.00182 -7.7304 -1.07446
H 6.06125 -8.68129 -0.982243
H 5.10951 -7.57459 -1.38396
O -2.01823 -1.68879 -10.8356
H -1.86954 -0.746979 -10.92
H -2.01758 -1.84825 -9.89153
O -0.772766 7.7612 -16.0742
H -0.588173 7.28902 -15.2621
H -0.379583 8.62425 -15.9446
O 4.25245 2.66301 12.0686
H 4.07522 3.57517 11.8387
H 4.97444 2.40689 11.4945
O -4.59341 3.68888 -18.5907
H -5.42444 3.8435 -19.04
H -4.81976 3.68827 -17.6604
O 9.20161 -1.81908 -9.89281
H 9.19878 -2.77543 -9.9332
H 9.5405 -1.54392 -10.7449
O -2.58754 7.43119 8.10385
H -2.77815 8.10495 7.45104
H -2.23758 7.91435 8.85258
O -2.27444 -3.97919 13.1531
H -3.06508 -3.66009 13.5883
H -1.81198 -3.18567 12.8834
O -4.11259 2.81629 6.99695
H -3.44943 3.28705 7.5019
H -4.56982 2.27884 7.64388
O 2.39227 3.71159 -21.7664
H 1.92087 2.89125 -21.6212
H 1.81944 4.21911 -22.3414
O -1.80842 4.04986 12.9064
H -2.56451 4.46166 12.488
H -1.12541 4.71998 12.8807
O 2.92974 5.23667 11.5052
H 2.16602 4.68478 11.3367
H 2.58014 5.99282 11.9767
O -2.63281 -2.72764 -0.14707
H -3.13621 -3.52272 -0.322256
H -3.08011 -2.04526 -0.647699
O 1.18746 -3.12775 9.83516
H 0.378297 -3.41787 9.41396
H 1.47447 -2.3786 9.31289
O 2.01244 -0.163419 12.9654
H 2.70315 0.202127 12.4125
H 1.59847 0.599763 13.3685
O 7.98139 9.12558 11.9675
H 8.73307 9.52458 12.4058
H 7.23662 9.33321 12.5319
O -2.13888 -4.45337 5.32364
H -2.76017 -5.17219 5.43997
H -1.27851 -4.86221 5.41773
O 1.38425 -8.32748 6.4791
H 1.34584 -9.0591 5.86292
H 1.71255 -8.71421 7.29102
O -1.53965 -3.72312 -12.7539
H -1.75493 -3.4764 -13.6536
H -1.61591 -2.90865 -12.2567
O 0.329492 6.48712 -18.1391
H -0.214882 5.74851 -18.4118
H -0.251916 7.03017 -17.6067
O 2.41274 -5.39035 -18.3604
H 2.41843 -5.69815 -19.267
H 1.77704 -5.95403 -17.9194
O 2.31284 -4.4159 -1.20597
H 1.75756 -4.01753 -0.535578
H 1.77753 -4.40382 -1.9996
O -1.81577 -3.65904 2.75303
H -2.33315 -3.84583 3.53659
H -2.46542 -3.47323 2.07487
O -8.45637 9.49245 1.97741
H -9.19535 9.96421 2.36168
H -8.83638 9.00604 1.24563
O 5.74925 -9.92292 -22.6913
H 5.82758 9.29773 -22.1137
H 4.8128 -9.85995 -22.8793
O 3.9399 9.22708 -19.3973
H 3.25443 9.11346 -20.0559
H 3.47231 9.23016 -18.5619
O -9.30352 7.09274 -7.44031
H -9.06792 7.98454 -7.18448
H -9.90212 6.79663 -6.75441
O 4.6211 7.00413 -13.329
H 3.91632 6.40429 -13.5734
H 5.33399 6.43298 -13.0429
O 1.83085 2.14558 1.84393
H 1.85806 1.3202 2.32804
H 1.41462 1.92202 1.01126
O -4.23594 5.09523 -9.59629
H -4.03559 5.23335 -8.67031
H -5.03837 5.59534 -9.74542
O 3.31643 -6.94139 -1.59013
H 3.10914 -6.10259 -1.17813
H 3.08543 -6.82009 -2.51132
O -7.89798 7.76715 -4.94185
H -8.625 7.59325 -4.34385
H -7.24095 7.10772 -4.71886
O -6.03005 -4.01899 -21.6693
H -6.88866 -3.60453 -21.5842
H -6.22355 -4.94721 -21.8005
O -7.73147 -3.02633 10.7724
H -8.49803 -2.95957 11.3419
H -7.5516 -3.96508 10.7211
O -0.934394 4.54784 2.3194
H -1.55562 3.96136 1.8876
H -0.778503 4.14548 3.17404
O 2.47321 5.09353 -18.7559
H 1.9115 5.67932 -18.2482
H 2.10302 4.22248 -18.6128
O 1.47459 2.99216 -12.1548
H 1.2809 3.70767 -12.7605
H 2.13988 3.34917 -11.5663
O 0.383701 -9.98911 -3.56011
H 0.768352 9.1309 -3.39072
H 0.677094 -9.76466 -4.44338
O -7.34949 -1.39119 -10.3302
H -7.97126 -0.971344 -9.73564
H -7.89061 -1.72986 -11.0436
O -7.44322 5.75421 4.91886
H -6.56544 5.37444 4.87996
H -7.77966 5.49364 5.77648
O 0.080139 6.26036 -21.9408
H -0.366154 5.49864 -22.3108
H -0.615349 6.76409 -21.5178
O -9.22472 -6.01658 -17.7016
H -8.8331 -6.37569 -18.498
H 10.0196 -6.07523 -17.8508
O -9.37427 -6.78403 -8.00359
H 9.85755 -6.82676 -7.99164
H -9.1039 -7.23464 -7.20334
O 9.92822 4.28089 3.18766
H -9.66192 4.2898 3.93531
H 9.09229 3.99037 3.55251
O 1.28851 -8.99754 -6.00368
H 1.5932 -9.39602 -6.81911
H 1.82408 -8.21015 -5.90658
O -4.47748 6.62051 -21.6469
H -4.25321 5.93672 -22.2782
H -5.36338 6.40017 -21.359
O 2.88577 9.34832 -17.0355
H 3.36981 8.52889 -16.9331
H 2.19682 9.30452 -16.3723
O -7.02555 -2.00805 6.31409
H -7.36874 -1.73215 5.46397
H -7.79952 -2.27392 6.81071
O -1.39243 -5.8877 -0.214574
H -1.76635 -5.68836 -1.07309
H -1.01835 -5.0583 0.0828012
O 3.0889 9.90218 -21.9787
H 2.91618 8.96365 -21.9041
H 2.22322 -9.67092 -21.9431
O -7.20751 -8.21381 -6.51195
H -7.19148 -8.24586 -5.55518
H -7.09454 -9.12441 -6.78457
O -9.64432 -2.75074 2.63693
H -9.1247 -2.20622 2.04541
H 9.7221 -2.89762 2.16813
O -8.12217 5.93108 -2.45358
H -7.83988 5.01679 -2.47838
H -7.42074 6.38627 -1.98762
O 5.38988 6.98968 -20.8962
H 4.49151 6.9108 -21.2171
H 5.44387 6.36064 -20.1765
O 4.89534 -9.29005 -14.403
H 5.51159 -9.14014 -13.6859
H 4.07324 -9.51826 -13.969
O 4.20367 -5.27534 -16.3416
H 3.64043 -5.32346 -17.1142
H 3.61735 -5.00946 -15.633
O 3.58434 9.34041 2.09263
H 2.94406 8.72721 1.73162
H 4.38704 9.16616 1.60103
O 9.12062 6.88867 -2.98681
H 8.56923 6.42547 -3.61756
H 9.73559 6.22559 -2.67309
O 3.91167 -5.76722 1.36726
H 3.54525 -6.64578 1.26675
H 4.30096 -5.76812 2.24194
O 5.22156 7.75293 11.5957
H 4.2673 7.68525 11.6281
H 5.45622 8.22188 12.3967
O 8.68256 -5.18288 8.77926
H 9.19231 -5.11701 9.58696
H 9.05477 -5.93651 8.32119
O 2.97698 1.96255 -7.54473
H 2.12566 2.32935 -7.30603
H 3.3869 1.74329 -6.70779
O 8.23342 -2.63573 1.17574
H 7.82381 -1.90264 1.63523
H 7.49874 -3.16372 0.863082
O 9.32192 3.94849 -2.92249
H 8.54323 3.55068 -2.533
H 9.0237 4.28102 -3.7693
O -3.26098 -4.48193 -8.48851
H -3.05624 -4.88361 -7.64392
H -2.43308 -4.09961 -8.77951
O 1.37264 9.26848 -0.576937
H 0.584915 9.80716 -0.502435
H 1.16942 8.64075 -1.27057
O 2.67352 1.56514 -2.11244
H 1.75975 1.65694 -2.38234
H 2.8367 2.32591 -1.55478
O 5.78209 -1.30824 -6.39439
H 6.05326 -0.571014 -6.94151
H 6.22178 -1.16034 -5.5569
O -1.37631 7.78462 -1.31405
H -1.26326 7.5683 -2.23984
H -2.25029 8.17165 -1.26306
O -2.575 7.95822 12.3752
H -2.48358 8.59271 13.0862
H -3.24323 7.34642 12.6841
O 8.20795 2.84822 -8.73036
H 8.91929 3.05072 -8.12258
H 8.5913 2.22796 -9.35065
O 7.0863 -5.04829 4.42702
H 7.90357 -4.7169 4.05478
H 7.32086 -5.32532 5.31294
O 6.42688 -0.333239 -16.7427
H 5.57496 -0.723769 -16.5478
H 6.73795 -0.00310954 -15.8996
O -2.56419 5.36596 -3.22906
H -2.07976 6.1821 -3.10466
H -2.77533 5.07465 -2.34182
O -1.58457 -8.6002 4.84938
H -1.08705 -7.89853 5.26944
H -1.09617 -8.79522 4.04938
O 5.93316 2.15099 9.78318
H 5.44232 2.30697 8.97615
H 6.41176 2.96605 9.93436
O -6.92194 -5.95556 -4.76465
H -7.12959 -6.88732 -4.6944
H -6.52767 -5.86225 -5.63209
O 6.53244 -9.16016 -19.6002
H 6.98431 -9.45629 -18.8098
H 5.61072 -9.36234 -19.4395
O -5.07557 7.60752 -14.6934
H -5.79162 7.5296 -14.0629
H -4.62561 8.41559 -14.4468
O 7.47048 -7.96805 9.99372
H 7.90891 -8.15768 9.16402
H 8.03761 -8.35727 10.6596
O 6.4837 2.5157 2.50545
H 6.60107 3.32219 3.00761
H 7.31059 2.40224 2.03672
O -10.035 6.65223 1.69308
H -10.0215 5.91404 2.30244
H 9.37817 6.5023 1.15131
O 9.77573 -8.96299 -11.1574
H 9.69567 -8.0094 -11.1352
H 9.79499 -9.22367 -10.2363
O 7.13765 -6.92627 -8.45236
H 7.50682 -7.48391 -7.76736
H 6.20881 -6.85794 -8.2314
O 1.87544 -7.56157 12.7114
H 2.51541 -7.02684 13.1814
H 1.02925 -7.17242 12.9323
O 10.0614 2.08131 14.3128
H -9.97348 1.37078 14.9358
H -9.72925 1.77553 13.4972
O 0.997709 -2.49055 4.83754
H 1.86261 -2.14867 5.06407
H 0.535449 -2.54699 5.67403
O 6.3797 8.89725 -15.9827
H 5.79415 8.31322 -16.4647
H 5.79464 9.51312 -15.5414
O -8.35164 4.57679 7.37318
H -7.50205 4.58925 7.81405
H -8.93387 4.12896 7.98708
O -5.06873 -0.0273754 12.5972
H -5.90498 0.282624 12.9448
H -4.64031 0.761032 12.2638
O -4.66236 -1.53124 -1.25751
H -5.20134 -0.83997 -0.872851
H -5.24223 -2.29158 -1.30082
O -8.6696 2.81866 -8.45591
H -9.25653 2.09325 -8.66929
H -8.25459 3.04438 -9.28861
O -9.46112 -9.91709 -3.21052
H -9.6666 9.18442 -2.89067
H 9.9403 -9.40412 -3.02502
O -9.78335 0.848784 -5.21678
H 9.66191 0.488777 -5.7016
H -9.08346 0.207325 -5.33894
O -1.92756 -8.996 -13.7592
H -2.87375 -8.97742 -13.6156
H -1.57638 -9.43989 -12.9871
O -3.89831 1.55955 -15.0774
H -4.73974 1.42025 -15.5121
H -4.11861 2.02835 -14.2723
O -5.40381 4.55118 -14.1969
H -5.14075 4.7651 -13.3015
H -6.17769 5.09179 -14.3553
O 4.58323 7.07822 -17.249
H 4.32607 6.28993 -16.7707
H 4.56615 6.81668 -18.1699
O 8.05538 -6.45665 -18.2767
H 7.3832 -7.05805 -17.9561
H 7.56423 -5.72809 -18.6565
O 2.3322 -2.58072 -17.2034
H 2.5059 -3.11568 -17.9781
H 1.569 -2.98978 -16.7953
O 8.28531 2.68109 7.48585
H 8.80898 3.08548 8.17774
H 7.58347 3.30983 7.31747
O -7.11354 -9.54514 -13.4425
H -7.65153 9.73618 -13.07
H -7.74003 -8.86341 -13.6854
O 4.64936 -6.0027 3.87409
H 4.23648 -6.32645 4.67488
H 5.49691 -5.6632 4.16163
O 3.77132 -1.92241 -12.4825
H 3.07196 -1.36584 -12.1398
H 3.65377 -2.75941 -12.0331
O 9.82741 0.597544 -21.9706
H 9.01139 0.478269 -21.4845
H 9.9569 -0.232389 -22.4297
O -4.59808 -9.40548 -14.4585
H -5.53042 -9.47669 -14.2538
H -4.55668 -8.7663 -15.17
O 2.4104 -5.87478 -13.7985
H 2.60944 -5.23384 -13.1158
H 1.46851 -5.78582 -13.944
O -2.88655 9.50146 6.4588
H -2.48426 -9.76084 5.9695
H -3.76994 9.43009 6.0971
O -9.2221 1.33088 0.361688
H -9.00207 1.13089 -0.548385
H -8.78914 2.16676 0.535174
O 7.24309 -9.62634 -12.7165
H 8.00569 -9.43311 -12.1711
H 7.59809 -9.72245 -13.6005
O 4.98955 6.25619 5.81657
H 4.29424 6.72583 5.35578
H 5.42501 6.9273 6.34226
O 6.73281 4.8167 -7.5482
H 6.51145 5.54029 -8.13456
H 7.25266 4.22107 -8.08799
O 8.34458 -1.49606 -1.76344
H 7.87973 -1.10531 -1.02335
H 7.6927 -1.53421 -2.46348
O 6.31762 -4.18998 -18.6663
H 5.85481 -3.6187 -18.0532
H 6.9006 -3.6031 -19.148
O -6.19943 2.80884 -6.38708
H -6.88986 3.44894 -6.2144
H -6.4732 2.37222 -7.1939
O -4.59565 7.8689 -6.72352
H -4.34447 7.04483 -6.30624
H -4.69306 8.48537 -5.99759
O -7.33481 1.15197 7.26792
H -7.82902 1.96427 7.3782
H -6.52361 1.29659 7.75515
O 3.83504 -7.24577 -12.1038
H 4.7471 -6.98286 -11.9803
H 3.54501 -6.75273 -12.8715
O 1.14716 7.27301 -13.9333
H 0.838053 6.4368 -13.5847
H 2.08433 7.28239 -13.7386
O -2.21338 2.50617 -18.0676
H -2.66557 3.07631 -18.6896
H -2.62007 2.70146 -17.2232
O 1.81267 -0.2404 -4.83463
H 2.66326 0.198097 -4.85565
H 1.70873 -0.519054 -3.92458
O 1.89438 0.165961 -21.9605
H 1.10384 0.665476 -21.7561
H 2.49549 0.810323 -22.3343
O -1.84601 4.72247 8.165
H -2.23267 5.57015 7.94549
H -0.901719 4.87851 8.15071
O -1.49627 -6.62578 -6.45171
H -1.14692 -7.12934 -7.18715
H -0.723213 -6.25608 -6.02505
O 9.5504 -4.19146 4.66754
H -9.90675 -4.58396 5.14518
H 9.9621 -3.56964 4.06731
O -0.325954 0.84577 -5.9363
H -0.108324 0.6608 -6.85013
H 0.404448 0.480568 -5.4368
O -7.64455 1.25665 12.4027
H -7.39676 2.16236 12.2169
H -7.51171 0.796657 11.5737
O 6.17822 8.88731 4.02174
H 6.041 9.14947 4.93228
H 6.44132 9.69306 3.5769
O -4.61713 9.9668 9.72255
H -3.94144 -9.43939 9.36133
H -5.38543 -9.85386 9.1742
O -7.38205 6.99456 12.697
H -6.94584 7.1872 11.8668
H -7.36109 7.82248 13.177
O 7.40613 8.17019 -19.3598
H 6.53377 8.41065 -19.672
H 7.24681 7.50175 -18.6933
O -0.168222 -1.99636 12.9349
H 0.565883 -2.41974 12.4897
H 0.238856 -1.3304 13.4891
O 8.53504 -5.58809 -21.3469
H 7.8333 -6.17013 -21.6386
H 8.94213 -6.05108 -20.6145
O -3.64918 -8.77829 -7.98252
H -4.09454 -8.61362 -8.81386
H -2.72823 -8.88483 -8.22079
O -5.41022 -5.94083 3.68335
H -5.96656 -6.55342 3.20215
H -4.56607 -5.97939 3.23363
O -0.327895 -6.11968 6.17751
H -0.895516 -6.24415 6.93832
H 0.477988 -6.5855 6.40072
O 5.11039 -2.03836 1.33467
H 4.51714 -2.42489 1.97893
H 4.84626 -1.11961 1.28609
O -6.63049 6.60189 -9.70935
H -7.14973 6.50485 -8.9109
H -6.96797 7.39801 -10.12
O -6.11937 9.89696 -4.55237
H -6.25456 -9.43448 -3.86131
H -6.88641 9.32678 -4.4997
O -9.62521 -0.430168 -11.9798
H 9.94898 0.0497344 -12.536
H -9.59679 -1.30947 -12.3571
O 3.88408 2.91043 -15.2496
H 2.99422 2.67162 -14.99
H 4.26131 2.09855 -15.5885
O -7.38047 -7.60159 -10.0507
H -6.67443 -7.07105 -9.68148
H -8.14389 -7.39335 -9.51201
O -9.263 -4.37121 -15.4804
H -9.94123 -3.69823 -15.5382
H -9.46786 -4.97989 -16.1904
O 8.44787 2.88478 -11.9895
H 8.64054 2.14499 -12.5657
H 9.30364 3.26733 -11.7957
O -10.0845 -6.49429 14.0583
H 9.84326 -6.12816 14.9037
H 9.28398 -6.57977 13.571
O -6.42114 -9.81714 7.33799
H -5.90713 -9.13249 6.90978
H -7.32049 -9.65583 7.05266
O 2.80783 -8.16814 1.20907
H 3.0083 -9.10273 1.25993
H 2.62601 -8.01177 0.282162
O -2.35577 -4.18352 -15.4113
H -2.90482 -3.6677 -16.002
H -2.96259 -4.51982 -14.7517
O -9.61859 1.34802 -15.6154
H 9.74067 0.9607 -15.3336
H -9.8396 2.25252 -15.8374
O 4.14362 0.126836 -9.18896
H 3.6989 0.632013 -8.50818
H 3.54166 0.144585 -9.93317
O -0.411113 -6.58693 -13.3164
H -0.814729 -7.45404 -13.3543
H -0.970903 -6.08742 -12.7219
O -2.99883 1.08598 -6.91233
H -2.31589 0.513649 -6.56261
H -3.79949 0.801002 -6.47182
O 6.72255 -1.38869 -19.4727
H 6.54975 -0.840925 -20.2386
H 6.75045 -0.774132 -18.7392
O 6.92667 -1.82242 10.5169
H 7.64131 -1.71998 9.88819
H 6.13475 -1.63725 10.012
O -10.016 8.97102 -0.42251
H 9.81582 9.6954 0.0920556
H 9.42416 8.39264 -0.572422
O 9.67282 0.441656 7.40692
H -9.84279 0.708076 8.03409
H 9.16 1.23517 7.25329
O -7.65094 -5.93676 9.87871
H -6.85642 -6.46672 9.94288
H -7.98638 -6.1126 8.99941
O -7.36205 -4.89777 -7.25664
H -6.93178 -4.3756 -7.93389
H -7.85374 -5.56085 -7.74131
O -6.43843 4.9323 9.25046
H -5.68487 5.09916 8.68417
H -6.59522 5.76629 9.69341
O 8.31268 5.35502 -5.34123
H 7.58046 5.32175 -5.957
H 8.99459 4.82224 -5.75045
O -3.49485 4.36786 -0.896738
H -3.44268 4.92863 -0.122574
H -3.22265 3.50431 -0.586139
O -4.66625 4.35443 4.74323
H -4.28429 3.86902 4.01181
H -4.43957 3.83949 5.51781
O -9.92368 -4.34299 -5.18905
H -9.95348 -4.76596 -4.33068
H -9.3306 -4.88892 -5.70536
O -7.40169 9.28243 -7.08726
H -7.39434 8.62803 -6.38856
H -6.55631 9.17713 -7.52379
O -7.0769 4.2474 -17.1014
H -6.88025 4.68685 -16.2739
H -7.35119 4.95213 -17.6883
O 5.02938 4.61106 -19.3238
H 4.10185 4.81713 -19.2078
H 5.15702 3.79683 -18.8369
O 1.33885 -7.88645 9.77623
H 1.8428 -7.15587 9.41766
H 1.3843 -7.76676 10.7251
O 6.31082 4.45205 -21.8642
H 6.0744 5.05735 -21.1612
H 7.16464 4.75951 -22.1687
O 6.70444 -3.64841 7.97296
H 7.38085 -4.32398 8.02094
H 7.11073 -2.87396 8.36213
O -8.66095 -0.801306 -19.5395
H -9.19649 -1.1382 -18.8211
H -9.23831 -0.197333 -20.0067
O 8.96387 -8.80391 0.759554
H 8.06347 -9.03455 0.530738
H 8.97322 -8.79373 1.71689
O -0.976153 -6.75017 -9.87936
H -0.821696 -5.83352 -9.65098
H -0.84148 -7.2274 -9.0604
O -4.40929 -5.03911 -14.0305
H -4.24707 -5.48518 -13.1991
H -5.31098 -4.72516 -13.9624
O 9.13344 5.5734 6.03169
H 9.9097 5.31714 6.52978
H 8.83143 6.37715 6.45489
O 6.88584 -6.19406 -12.664
H 7.5238 -6.69371 -12.1543
H 7.25427 -6.16423 -13.5471
O 8.10785 6.83719 -16.4209
H 7.67405 7.68309 -16.5327
H 8.13717 6.70594 -15.473
O -5.60788 6.00887 -4.40908
H -5.74313 5.0633 -4.47096
H -5.37638 6.15872 -3.49223
O -9.90364 -6.43403 -23.1944
H 9.75057 -5.84033 -22.6662
H 9.6538 -6.89807 -23.7453
O 0.208152 3.23517 -18.576
H -0.712876 2.97454 -18.5725
H 0.512522 3.02912 -19.4601
O 0.20208 1.93017 13.0524
H -0.245491 1.63726 12.2584
H -0.355515 2.62663 13.3993
O -5.6351 6.86478 -1.51297
H -5.42466 7.78711 -1.36715
H -5.4913 6.44858 -0.662863
O -8.75091 7.75291 7.51171
H -9.20921 7.74499 6.67119
H -7.96396 8.27358 7.35093
O 5.47101 9.87988 9.22116
H 5.36232 9.41023 10.0483
H 5.63603 -9.19348 9.48003
O 2.03464 -2.06191 -9.13295
H 1.62357 -2.0948 -8.26893
H 2.97211 -1.99835 -8.95029
O -1.73394 -8.62657 -16.579
H -1.86614 -8.92055 -15.6775
H -1.32153 -7.76705 -16.493
O -7.15634 4.02633 12.3945
H -8.05924 3.71717 12.4682
H -7.20996 4.96664 12.5654
O 4.88161 -8.43665 11.8959
H 5.30877 -7.66911 11.5155
H 4.05152 -8.50753 11.4245
O -5.80736 2.23676 9.24948
H -6.1204 3.12951 9.39522
H -5.73012 1.86324 10.1276
O -6.15451 2.10283 -12.9772
H -5.70114 1.66206 -12.2584
H -5.66281 2.91329 -13.11
O -1.34151 -7.07339 -21.3059
H -1.24315 -7.58609 -22.1084
H -1.09187 -7.67502 -20.6043
O 1.25346 9.14487 -8.14872
H 1.74634 8.92668 -8.93991
H 0.712897 8.37268 -7.9821
O -6.14922 4.19899 -21.7409
H -6.60277 3.3723 -21.5762
H -5.30182 3.93986 -22.1029
O 4.54842 4.11478 1.42646
H 5.00739 3.29377 1.60407
H 4.83028 4.70355 2.12674
O 0.510181 -3.61962 -3.09443
H -0.0212502 -4.14082 -2.49248
H 0.234122 -2.71657 -2.93779
O -9.6682 -1.83473 -3.35351
H -9.94788 -2.2391 -4.17499
H 9.7326 -1.82809 -2.80886
O 4.05294 1.65785 -4.77419
H 4.95949 1.78175 -4.49298
H 3.55547 1.59375 -3.95873
O -9.83255 -8.07739 3.89243
H -9.84865 -7.45856 4.62269
H -8.90598 -8.28785 3.77658
O -4.70714 -5.60473 12.71
H -4.86744 -4.66128 12.689
H -5.45591 -5.96484 13.1854
O -4.37889 6.01978 12.9336
H -4.3141 5.73706 12.0211
H -5.3193 6.09575 13.0951
O -6.88632 -4.10381 -17.4211
H -6.7057 -4.24832 -16.492
H -7.81421 -4.31655 -17.5211
O -10.0246 9.95758 -8.43672
H 9.27673 9.69864 -8.18558
H -9.48342 9.72232 -7.68288
O 6.9851 0.646775 -7.80034
H 7.8905 0.346889 -7.71939
H 7.05585 1.59358 -7.922
O -0.578818 -8.75701 -8.32205
H -0.653524 -9.30112 -7.5379
H 0.123634 -9.16302 -8.83006
O -8.01717 -0.817225 -6.54019
H -7.34975 -0.288851 -6.97803
H -7.5413 -1.57904 -6.20933
O 8.62179 -7.74773 -3.91947
H 9.03489 -7.08098 -3.37068
H 7.68242 -7.61517 -3.79192
O -9.98793 0.38199 2.97202
H 9.85137 1.03353 3.58056
H -9.94983 0.835919 2.12995
O 2.41373 7.74329 12.5274
H 1.96653 8.2228 11.8299
H 2.2765 8.27574 13.3111
O -1.49776 9.07309 10.0632
H -1.97209 8.64986 10.779
H -1.80566 9.97935 10.0741
O 2.50343 7.16802 4.69561
H 2.22515 8.04221 4.42244
H 1.68792 6.67701 4.79604
O 6.58189 -4.34479 -9.4824
H 5.66646 -4.61677 -9.5475
H 6.86684 -4.66411 -8.62599
O -0.0659793 3.32847 -0.301428
H 0.715994 3.5437 -0.809906
H -0.0271946 3.9113 0.457077
O -4.37384 8.81147 0.0314715
H -4.20908 9.74468 0.166457
H -4.01162 8.38877 0.810354
O -3.04015 -7.02003 1.57189
H -2.20489 -6.57224 1.4375
H -3.21679 -7.45399 0.73699
O -7.12159 1.63492 3.03747
H -8.03393 1.34534 3.03382
H -6.89001 1.68685 3.96501
O -7.87008 9.14054 -10.402
H -7.75562 -9.91127 -10.606
H -8.34089 9.13425 -9.56839
O -1.3839 -5.31227 8.59702
H -2.02747 -5.01036 9.2382
H -1.15567 -4.52777 8.09819
O 2.03823 3.94222 3.75719
H 1.92501 3.35091 3.01285
H 2.8501 4.41283 3.56836
O -6.1645 -5.52604 -2.07782
H -6.76091 -4.8164 -1.83911
H -5.65578 -5.1762 -2.80947
O 1.94994 0.600672 -14.3135
H 1.06905 0.886135 -14.556
H 1.87062 0.32747 -13.3993
O 4.10577 4.37035 -5.97083
H 5.00442 4.45049 -6.29064
H 3.92104 3.43184 -6.00681
O 7.09518 -5.22066 -15.8629
H 6.14603 -5.09696 -15.856
H 7.26968 -5.69375 -16.6767
O 2.5595 8.01317 7.4609
H 2.95491 7.5117 6.7477
H 1.66052 8.17181 7.1729
O 3.88224 8.81926 -2.26893
H 3.18204 9.31624 -1.84578
H 4.52992 8.68124 -1.57761
O -7.23567 -0.320067 10.2302
H -7.11142 -0.320242 9.28082
H -7.34734 -1.24309 10.4578
O 6.71966 -7.38335 -21.7684
H 6.64731 -7.84624 -20.9335
H 6.60937 -8.06507 -22.4314
O 9.45173 5.01232 -18.3547
H 9.26689 5.67025 -17.6843
H 8.73644 4.38123 -18.2752
O 8.58192 1.97268 4.63036
H 8.68611 2.21796 5.54995