ITEM: TIMESTEP
40000
ITEM: NUMBER OF ATOMS
1835
ITEM: BOX BOUNDS pp pp pp
-1.0093999999999999e+01 1.0093999999999999e+01
-9.9900000000000002e+00 9.9900035801999998e+00
-3.3260936570991895e+01 1.7133863310708207e+01
ITEM: ATOMS id type element mass x y z vx vy vz ix iy iz
1633 15 C 197 -8.1564 -8.1564 -31.441 0 0 0 0 0 0
1634 15 C 197 -6.1173 -6.1173 -31.441 0 0 0 0 0 0
1635 15 C 197 -6.1173 -8.1564 -29.657 0 0 0 0 0 0
1636 15 C 197 -8.1564 -6.1173 -29.657 0 0 0 0 0 0
1637 15 C 197 -4.0782 -8.1564 -31.441 0 0 0 0 0 0
1638 15 C 197 -2.0391 -6.1173 -31.441 0 0 0 0 0 0
1639 15 C 197 -2.0391 -8.1564 -29.657 0 0 0 0 0 0
1640 15 C 197 -4.0782 -6.1173 -29.657 0 0 0 0 0 0
1651 15 C 197 -8.1564 -4.0782 -31.441 0 0 0 0 0 0
1652 15 C 197 -6.1173 -2.0391 -31.441 0 0 0 0 0 0
1653 15 C 197 -6.1173 -4.0782 -29.657 0 0 0 0 0 0
1654 15 C 197 -8.1564 -2.0391 -29.657 0 0 0 0 0 0
1655 15 C 197 -4.0782 -4.0782 -31.441 0 0 0 0 0 0
1656 15 C 197 -2.0391 -2.0391 -31.441 0 0 0 0 0 0
1657 15 C 197 -2.0391 -4.0782 -29.657 0 0 0 0 0 0
1658 15 C 197 -4.0782 -2.0391 -29.657 0 0 0 0 0 0
1669 15 C 197 -8.1564 0 -31.441 0 0 0 0 0 0
1671 15 C 197 -6.1173 0 -29.657 0 0 0 0 0 0
1673 15 C 197 -4.0782 0 -31.441 0 0 0 0 0 0
1675 15 C 197 -2.0391 0 -29.657 0 0 0 0 0 0
1714 15 C 197 -8.1564 -8.1564 -27.8731 0 0 0 0 0 0
1715 15 C 197 -6.1173 -6.1173 -27.8731 0 0 0 0 0 0
1718 15 C 197 -4.0782 -8.1564 -27.8731 0 0 0 0 0 0
1719 15 C 197 -2.0391 -6.1173 -27.8731 0 0 0 0 0 0
1732 15 C 197 -8.1564 -4.0782 -27.8731 0 0 0 0 0 0
1733 15 C 197 -6.1173 -2.0391 -27.8731 0 0 0 0 0 0
1736 15 C 197 -4.0782 -4.0782 -27.8731 0 0 0 0 0 0
1737 15 C 197 -2.0391 -2.0391 -27.8731 0 0 0 0 0 0
1750 15 C 197 -8.1564 0 -27.8731 0 0 0 0 0 0
1754 15 C 197 -4.0782 0 -27.8731 0 0 0 0 0 0
1554 15 C 197 -6.1173 -8.1564 -33.225 0 0 0 0 0 0
1555 15 C 197 -8.1564 -6.1173 -33.225 0 0 0 0 0 0
1558 15 C 197 -2.0391 -8.1564 -33.225 0 0 0 0 0 0
1559 15 C 197 -4.0782 -6.1173 -33.225 0 0 0 0 0 0
1572 15 C 197 -6.1173 -4.0782 -33.225 0 0 0 0 0 0
1573 15 C 197 -8.1564 -2.0391 -33.225 0 0 0 0 0 0
1576 15 C 197 -2.0391 -4.0782 -33.225 0 0 0 0 0 0
1577 15 C 197 -4.0782 -2.0391 -33.225 0 0 0 0 0 0
1590 15 C 197 -6.1173 0 -33.225 0 0 0 0 0 0
1594 15 C 197 -2.0391 0 -33.225 0 0 0 0 0 0
1641 15 C 197 0 -8.1564 -31.441 0 0 0 0 0 0
1642 15 C 197 2.0391 -6.1173 -31.441 0 0 0 0 0 0
1643 15 C 197 2.0391 -8.1564 -29.657 0 0 0 0 0 0
1644 15 C 197 0 -6.1173 -29.657 0 0 0 0 0 0
1645 15 C 197 4.0782 -8.1564 -31.441 0 0 0 0 0 0
1646 15 C 197 6.1173 -6.1173 -31.441 0 0 0 0 0 0
1647 15 C 197 6.1173 -8.1564 -29.657 0 0 0 0 0 0
1648 15 C 197 4.0782 -6.1173 -29.657 0 0 0 0 0 0
1649 15 C 197 8.1564 -8.1564 -31.441 0 0 0 0 0 0
1650 15 C 197 8.1564 -6.1173 -29.657 0 0 0 0 0 0
1659 15 C 197 0 -4.0782 -31.441 0 0 0 0 0 0
1660 15 C 197 2.0391 -2.0391 -31.441 0 0 0 0 0 0
1661 15 C 197 2.0391 -4.0782 -29.657 0 0 0 0 0 0
1662 15 C 197 0 -2.0391 -29.657 0 0 0 0 0 0
1663 15 C 197 4.0782 -4.0782 -31.441 0 0 0 0 0 0
1664 15 C 197 6.1173 -2.0391 -31.441 0 0 0 0 0 0
1665 15 C 197 6.1173 -4.0782 -29.657 0 0 0 0 0 0
1666 15 C 197 4.0782 -2.0391 -29.657 0 0 0 0 0 0
1667 15 C 197 8.1564 -4.0782 -31.441 0 0 0 0 0 0
1668 15 C 197 8.1564 -2.0391 -29.657 0 0 0 0 0 0
1677 15 C 197 0 0 -31.441 0 0 0 0 0 0
1679 15 C 197 2.0391 0 -29.657 0 0 0 0 0 0
1681 15 C 197 4.0782 0 -31.441 0 0 0 0 0 0
1683 15 C 197 6.1173 0 -29.657 0 0 0 0 0 0
1685 15 C 197 8.1564 0 -31.441 0 0 0 0 0 0
1722 15 C 197 0 -8.1564 -27.8731 0 0 0 0 0 0
1723 15 C 197 2.0391 -6.1173 -27.8731 0 0 0 0 0 0
1726 15 C 197 4.0782 -8.1564 -27.8731 0 0 0 0 0 0
1727 15 C 197 6.1173 -6.1173 -27.8731 0 0 0 0 0 0
1730 15 C 197 8.1564 -8.1564 -27.8731 0 0 0 0 0 0
1740 15 C 197 0 -4.0782 -27.8731 0 0 0 0 0 0
1741 15 C 197 2.0391 -2.0391 -27.8731 0 0 0 0 0 0
1744 15 C 197 4.0782 -4.0782 -27.8731 0 0 0 0 0 0
1745 15 C 197 6.1173 -2.0391 -27.8731 0 0 0 0 0 0
1748 15 C 197 8.1564 -4.0782 -27.8731 0 0 0 0 0 0
1758 15 C 197 0 0 -27.8731 0 0 0 0 0 0
1762 15 C 197 4.0782 0 -27.8731 0 0 0 0 0 0
1766 15 C 197 8.1564 0 -27.8731 0 0 0 0 0 0
1562 15 C 197 2.0391 -8.1564 -33.225 0 0 0 0 0 0
1563 15 C 197 0 -6.1173 -33.225 0 0 0 0 0 0
1566 15 C 197 6.1173 -8.1564 -33.225 0 0 0 0 0 0
1567 15 C 197 4.0782 -6.1173 -33.225 0 0 0 0 0 0
1569 15 C 197 8.1564 -6.1173 -33.225 0 0 0 0 0 0
1580 15 C 197 2.0391 -4.0782 -33.225 0 0 0 0 0 0
1581 15 C 197 0 -2.0391 -33.225 0 0 0 0 0 0
1584 15 C 197 6.1173 -4.0782 -33.225 0 0 0 0 0 0
1585 15 C 197 4.0782 -2.0391 -33.225 0 0 0 0 0 0
1587 15 C 197 8.1564 -2.0391 -33.225 0 0 0 0 0 0
1598 15 C 197 2.0391 0 -33.225 0 0 0 0 0 0
1602 15 C 197 6.1173 0 -33.225 0 0 0 0 0 0
1670 15 C 197 -6.1173 2.0391 -31.441 0 0 0 0 0 0
1672 15 C 197 -8.1564 2.0391 -29.657 0 0 0 0 0 0
1674 15 C 197 -2.0391 2.0391 -31.441 0 0 0 0 0 0
1676 15 C 197 -4.0782 2.0391 -29.657 0 0 0 0 0 0
1687 15 C 197 -8.1564 4.0782 -31.441 0 0 0 0 0 0
1688 15 C 197 -6.1173 6.1173 -31.441 0 0 0 0 0 0
1689 15 C 197 -6.1173 4.0782 -29.657 0 0 0 0 0 0
1690 15 C 197 -8.1564 6.1173 -29.657 0 0 0 0 0 0
1691 15 C 197 -4.0782 4.0782 -31.441 0 0 0 0 0 0
1692 15 C 197 -2.0391 6.1173 -31.441 0 0 0 0 0 0
1693 15 C 197 -2.0391 4.0782 -29.657 0 0 0 0 0 0
1694 15 C 197 -4.0782 6.1173 -29.657 0 0 0 0 0 0
1705 15 C 197 -8.1564 8.1564 -31.441 0 0 0 0 0 0
1706 15 C 197 -6.1173 8.1564 -29.657 0 0 0 0 0 0
1707 15 C 197 -4.0782 8.1564 -31.441 0 0 0 0 0 0
1708 15 C 197 -2.0391 8.1564 -29.657 0 0 0 0 0 0
1751 15 C 197 -6.1173 2.0391 -27.8731 0 0 0 0 0 0
1755 15 C 197 -2.0391 2.0391 -27.8731 0 0 0 0 0 0
1768 15 C 197 -8.1564 4.0782 -27.8731 0 0 0 0 0 0
1769 15 C 197 -6.1173 6.1173 -27.8731 0 0 0 0 0 0
1772 15 C 197 -4.0782 4.0782 -27.8731 0 0 0 0 0 0
1773 15 C 197 -2.0391 6.1173 -27.8731 0 0 0 0 0 0
1786 15 C 197 -8.1564 8.1564 -27.8731 0 0 0 0 0 0
1788 15 C 197 -4.0782 8.1564 -27.8731 0 0 0 0 0 0
1591 15 C 197 -8.1564 2.0391 -33.225 0 0 0 0 0 0
1595 15 C 197 -4.0782 2.0391 -33.225 0 0 0 0 0 0
1608 15 C 197 -6.1173 4.0782 -33.225 0 0 0 0 0 0
1609 15 C 197 -8.1564 6.1173 -33.225 0 0 0 0 0 0
1612 15 C 197 -2.0391 4.0782 -33.225 0 0 0 0 0 0
1613 15 C 197 -4.0782 6.1173 -33.225 0 0 0 0 0 0
1625 15 C 197 -6.1173 8.1564 -33.225 0 0 0 0 0 0
1627 15 C 197 -2.0391 8.1564 -33.225 0 0 0 0 0 0
1678 15 C 197 2.0391 2.0391 -31.441 0 0 0 0 0 0
1680 15 C 197 0 2.0391 -29.657 0 0 0 0 0 0
1682 15 C 197 6.1173 2.0391 -31.441 0 0 0 0 0 0
1684 15 C 197 4.0782 2.0391 -29.657 0 0 0 0 0 0
1686 15 C 197 8.1564 2.0391 -29.657 0 0 0 0 0 0
1695 15 C 197 0 4.0782 -31.441 0 0 0 0 0 0
1696 15 C 197 2.0391 6.1173 -31.441 0 0 0 0 0 0
1697 15 C 197 2.0391 4.0782 -29.657 0 0 0 0 0 0
1698 15 C 197 0 6.1173 -29.657 0 0 0 0 0 0
1699 15 C 197 4.0782 4.0782 -31.441 0 0 0 0 0 0
1700 15 C 197 6.1173 6.1173 -31.441 0 0 0 0 0 0
1701 15 C 197 6.1173 4.0782 -29.657 0 0 0 0 0 0
1702 15 C 197 4.0782 6.1173 -29.657 0 0 0 0 0 0
1703 15 C 197 8.1564 4.0782 -31.441 0 0 0 0 0 0
1704 15 C 197 8.1564 6.1173 -29.657 0 0 0 0 0 0
1709 15 C 197 0 8.1564 -31.441 0 0 0 0 0 0
1710 15 C 197 2.0391 8.1564 -29.657 0 0 0 0 0 0
1711 15 C 197 4.0782 8.1564 -31.441 0 0 0 0 0 0
1712 15 C 197 6.1173 8.1564 -29.657 0 0 0 0 0 0
1713 15 C 197 8.1564 8.1564 -31.441 0 0 0 0 0 0
1759 15 C 197 2.0391 2.0391 -27.8731 0 0 0 0 0 0
1763 15 C 197 6.1173 2.0391 -27.8731 0 0 0 0 0 0
1776 15 C 197 0 4.0782 -27.8731 0 0 0 0 0 0
1777 15 C 197 2.0391 6.1173 -27.8731 0 0 0 0 0 0
1780 15 C 197 4.0782 4.0782 -27.8731 0 0 0 0 0 0
1781 15 C 197 6.1173 6.1173 -27.8731 0 0 0 0 0 0
1784 15 C 197 8.1564 4.0782 -27.8731 0 0 0 0 0 0
1790 15 C 197 0 8.1564 -27.8731 0 0 0 0 0 0
1792 15 C 197 4.0782 8.1564 -27.8731 0 0 0 0 0 0
1794 15 C 197 8.1564 8.1564 -27.8731 0 0 0 0 0 0
1599 15 C 197 0 2.0391 -33.225 0 0 0 0 0 0
1603 15 C 197 4.0782 2.0391 -33.225 0 0 0 0 0 0
1605 15 C 197 8.1564 2.0391 -33.225 0 0 0 0 0 0
1616 15 C 197 2.0391 4.0782 -33.225 0 0 0 0 0 0
1617 15 C 197 0 6.1173 -33.225 0 0 0 0 0 0
1620 15 C 197 6.1173 4.0782 -33.225 0 0 0 0 0 0
1621 15 C 197 4.0782 6.1173 -33.225 0 0 0 0 0 0
1623 15 C 197 8.1564 6.1173 -33.225 0 0 0 0 0 0
1629 15 C 197 2.0391 8.1564 -33.225 0 0 0 0 0 0
1631 15 C 197 6.1173 8.1564 -33.225 0 0 0 0 0 0
1716 15 C 197 -6.1173 -8.1564 -26.0891 0 0 0 0 0 0
1717 15 C 197 -8.1564 -6.1173 -26.0891 0 0 0 0 0 0
1720 15 C 197 -2.0391 -8.1564 -26.0891 0 0 0 0 0 0
1721 15 C 197 -4.0782 -6.1173 -26.0891 0 0 0 0 0 0
1734 15 C 197 -6.1173 -4.0782 -26.0891 0 0 0 0 0 0
1735 15 C 197 -8.1564 -2.0391 -26.0891 0 0 0 0 0 0
1738 15 C 197 -2.0391 -4.0782 -26.0891 0 0 0 0 0 0
1739 15 C 197 -4.0782 -2.0391 -26.0891 0 0 0 0 0 0
1752 15 C 197 -6.1173 0 -26.0891 0 0 0 0 0 0
1756 15 C 197 -2.0391 0 -26.0891 0 0 0 0 0 0
1795 15 C 197 -8.1564 -8.1564 -24.3051 0 0 0 0 0 0
1796 15 C 197 -6.1173 -6.1173 -24.3051 0 0 0 0 0 0
1797 15 C 197 -4.0782 -8.1564 -24.3051 0 0 0 0 0 0
1798 15 C 197 -2.0391 -6.1173 -24.3051 0 0 0 0 0 0
1804 15 C 197 -8.1564 -4.0782 -24.3051 0 0 0 0 0 0
1805 15 C 197 -6.1173 -2.0391 -24.3051 0 0 0 0 0 0
1806 15 C 197 -4.0782 -4.0782 -24.3051 0 0 0 0 0 0
1807 15 C 197 -2.0391 -2.0391 -24.3051 0 0 0 0 0 0
1813 15 C 197 -8.1564 0 -24.3051 0 0 0 0 0 0
1815 15 C 197 -4.0782 0 -24.3051 0 0 0 0 0 0
1 10 C 14.007 -3.17831 -2.18954 -21.5833 -0.00470992 0.00537601 -0.00200657 0 0 0
2 3 C 1.008 -3.01097 -3.23396 -21.3914 -0.000388648 0.00247629 0.000238236 0 0 0
3 3 C 1.008 -2.85561 -1.84175 -22.5075 -0.012763 0.000698863 0.0189837 0 0 0
4 3 C 1.008 -4.19715 -1.97557 -21.6323 -0.0155654 -0.00357901 0.0326554 0 0 0
10 8 C 12.011 -0.411002 -3.41876 -20.5969 -0.00568587 0.00391797 0.0095704 0 0 0
11 1 C 1.008 -0.793657 -3.94392 -21.499 0.0125906 -0.037616 -0.0253523 0 0 0
12 1 C 1.008 -0.147194 -4.20443 -19.8314 -0.000632288 -0.0137181 -0.0407416 0 0 0
937 12 C 15.999 -1.34151 -7.07339 -21.3059 -0.000738351 0.00174015 -0.00177397 0 0 0
938 4 C 1.008 -1.24315 -7.58609 -22.1084 0.0199317 -0.0145106 0.01135 0 0 0
939 4 C 1.008 -1.09187 -7.67502 -20.6043 -0.00942503 0.0189361 0.0158735 0 0 0
5 7 C 12.011 -2.45525 -1.53927 -20.4166 -0.00991559 0.00579855 0.00094781 0 0 0
6 2 C 1.008 -3.20107 -1.25271 -19.738 0.011572 0.00802784 0.0209553 0 0 0
7 8 C 12.011 -1.52352 -2.57757 -19.8568 0.00203105 -0.018119 -0.00193844 0 0 0
25 6 C 12.011 -1.63822 -0.318386 -20.8116 -0.00208427 0.000249896 -0.00601448 0 0 0
8 1 C 1.008 -2.24245 -3.30523 -19.4006 0.0153436 0.0423323 -0.0122823 0 0 0
223 12 C 15.999 -8.57414 -3.20619 -21.0711 0.00175692 -0.00219698 -0.00759721 0 0 0
224 4 C 1.008 -9.25636 -3.80917 -20.7757 0.0106184 -0.00190908 0.0133823 0 0 0
1514 4 C 1.008 -3.86638 -5.47563 -21.2473 -0.0114713 -0.0100524 -0.0361932 1 0 0
1513 12 C 15.999 -3.06031 -4.99489 -21.4354 -0.00631755 -0.0019004 0.00675703 1 0 0
1515 4 C 1.008 -2.38871 -5.67273 -21.511 -0.00530916 0.000928806 -0.00974848 1 0 0
225 4 C 1.008 -8.53762 -2.5335 -20.391 0.0407585 -0.016062 0.00386064 0 0 0
466 12 C 15.999 -6.03005 -4.01899 -21.6693 -0.00566071 -0.00294884 0.00286242 0 0 0
468 4 C 1.008 -6.22355 -4.94721 -21.8005 0.000620535 -0.00608663 0.0158225 0 0 0
467 4 C 1.008 -6.88866 -3.60453 -21.5842 -0.00897959 -0.00482315 -0.0215992 0 0 0
40 12 C 15.999 -5.48099 -7.45364 -21.4631 -0.00280327 -0.0038845 -0.00246855 0 1 0
42 4 C 1.008 -6.26491 -7.74082 -20.9948 0.00945247 -0.00787466 0.0154531 0 1 0
41 4 C 1.008 -4.83803 -8.14386 -21.3006 0.0041216 -0.00110303 -0.0181605 0 1 0
493 12 C 15.999 -9.22472 -6.01658 -17.7016 -0.00475186 0.00331125 -0.000378284 0 0 0
9 1 C 1.008 -1.0828 -2.09019 -19.0085 0.0282524 -0.00231566 0.00641964 0 0 0
1447 12 C 15.999 -5.52498 -0.652242 -21.4976 0.0085311 0.00216871 0.00426136 0 0 0
1448 4 C 1.008 -6.22162 -0.435405 -22.1174 0.0134513 -0.0062224 -0.00404426 0 0 0
161 4 C 1.008 -5.25324 9.62655 -21.8029 -0.00879766 0.000212052 0.00377667 0 -1 0
967 12 C 15.999 -6.88632 -4.10381 -17.4211 -0.00406432 0.00663362 -0.000163022 0 0 0
969 4 C 1.008 -7.81421 -4.31655 -17.5211 -0.00141066 -0.0089435 0.00850501 0 0 0
901 12 C 15.999 -9.90364 -6.43403 -23.1944 0.00499683 -0.00475352 -0.00052894 0 0 0
495 4 C 1.008 10.0196 -6.07523 -17.8508 0.000933426 -0.0324334 -0.0220128 -1 0 0
902 4 C 1.008 9.75057 -5.84033 -22.6662 0.00457168 -0.00209556 -0.00408821 -1 0 0
27 11 C 15.999 -0.979641 0.287948 -19.947 0.00101783 -0.00641948 -0.00243098 0 0 0
1146 4 C 1.008 -2.98906 -9.72473 -23.0264 -0.00289127 -0.0268283 0.0116091 0 0 0
1253 4 C 1.008 -0.212323 -9.78994 -22.5509 0.00809298 0.00702176 -0.0154019 0 1 0
160 12 C 15.999 -4.46089 9.77256 -21.286 -0.00367406 0.00179066 -0.00467384 0 -1 0
162 4 C 1.008 -4.68916 9.47156 -20.4062 0.00652777 0.00023953 -0.00279762 0 -1 0
1436 4 C 1.008 -9.27669 -8.61082 -20.453 0.0172114 0.00697435 -0.0153679 1 0 0
1435 12 C 15.999 -10.0234 -8.0349 -20.6172 0.0107583 0.00180752 -0.00411684 1 0 0
1437 4 C 1.008 -9.83444 -7.6327 -21.4652 -0.00600702 0.00115399 -0.00792768 1 0 0
1724 15 C 197 2.0391 -8.1564 -26.0891 0 0 0 0 0 0
1725 15 C 197 0 -6.1173 -26.0891 0 0 0 0 0 0
1728 15 C 197 6.1173 -8.1564 -26.0891 0 0 0 0 0 0
1729 15 C 197 4.0782 -6.1173 -26.0891 0 0 0 0 0 0
1731 15 C 197 8.1564 -6.1173 -26.0891 0 0 0 0 0 0
1742 15 C 197 2.0391 -4.0782 -26.0891 0 0 0 0 0 0
1743 15 C 197 0 -2.0391 -26.0891 0 0 0 0 0 0
1746 15 C 197 6.1173 -4.0782 -26.0891 0 0 0 0 0 0
1747 15 C 197 4.0782 -2.0391 -26.0891 0 0 0 0 0 0
1749 15 C 197 8.1564 -2.0391 -26.0891 0 0 0 0 0 0
1760 15 C 197 2.0391 0 -26.0891 0 0 0 0 0 0
1764 15 C 197 6.1173 0 -26.0891 0 0 0 0 0 0
494 4 C 1.008 -8.8331 -6.37569 -18.498 0.0271624 0.0165901 0.00955112 0 0 0
1340 4 C 1.008 -9.5084 -2.74577 -22.4911 -0.00311589 -0.00890847 -0.0113883 1 0 0
1339 12 C 15.999 9.98735 -2.25388 -22.9329 -0.00523874 -0.00974677 -0.00887774 0 0 0
1341 4 C 1.008 -9.91842 -2.20999 -23.8467 0.011028 0.0248742 -0.00197476 1 0 0
206 4 C 1.008 2.2351 -6.92512 -21.2068 -0.0132011 -0.00471174 0.00282481 0 0 0
207 4 C 1.008 0.753056 -6.70846 -20.9866 -0.0082707 0.0140989 0.0174282 0 0 0
903 4 C 1.008 9.6538 -6.89807 -23.7453 0.00449031 -0.0148116 0.00867452 -1 0 0
13 8 C 12.011 0.861156 -2.62391 -21.1203 0.00667799 0.00116067 0.00681141 0 0 0
15 1 C 1.008 0.532798 -2.05415 -22.0436 0.00237936 -0.00971546 0.0156334 0 0 0
683 4 C 1.008 9.01139 0.478269 -21.4845 -0.00251308 0.0119798 -0.0249302 -1 0 0
205 12 C 15.999 1.5855 -6.24006 -21.0489 -0.00507986 0.00519275 -0.00677383 0 0 0
14 1 C 1.008 1.27817 -1.89083 -20.3972 0.011322 -0.00186625 0.0225581 0 0 0
17 3 C 1.008 1.78112 -4.60672 -21.2197 0.00102906 0.0292395 -0.0136992 0 0 0
16 9 C 14.007 1.95 -3.63439 -21.3905 0.00149035 0.00295215 -0.00196737 0 0 0
21 3 C 1.008 3.89773 -5.23525 -21.1777 -0.0254029 0.0449932 0.00928392 0 0 0
1799 15 C 197 0 -8.1564 -24.3051 0 0 0 0 0 0
1800 15 C 197 2.0391 -6.1173 -24.3051 0 0 0 0 0 0
1801 15 C 197 4.0782 -8.1564 -24.3051 0 0 0 0 0 0
1802 15 C 197 6.1173 -6.1173 -24.3051 0 0 0 0 0 0
1803 15 C 197 8.1564 -8.1564 -24.3051 0 0 0 0 0 0
1808 15 C 197 0 -4.0782 -24.3051 0 0 0 0 0 0
1809 15 C 197 2.0391 -2.0391 -24.3051 0 0 0 0 0 0
1810 15 C 197 4.0782 -4.0782 -24.3051 0 0 0 0 0 0
1811 15 C 197 6.1173 -2.0391 -24.3051 0 0 0 0 0 0
1812 15 C 197 8.1564 -4.0782 -24.3051 0 0 0 0 0 0
1817 15 C 197 0 0 -24.3051 0 0 0 0 0 0
1819 15 C 197 4.0782 0 -24.3051 0 0 0 0 0 0
1821 15 C 197 8.1564 0 -24.3051 0 0 0 0 0 0
23 3 C 1.008 3.03547 -1.34521 -21.4581 -0.0451597 -0.00219822 0.012139 0 0 0
18 5 C 12.011 3.27658 -3.332 -21.4171 -0.00379316 -0.00168827 -0.00440049 0 0 0
19 9 C 14.007 4.17111 -4.29204 -21.2848 -0.00377973 0.00228551 0.00614513 0 0 0
20 3 C 1.008 5.12028 -4.02001 -21.201 -0.0243998 -0.0316872 -0.0162048 0 0 0
22 9 C 14.007 3.70015 -2.08372 -21.6187 -0.00758819 0.00319929 0.00512406 0 0 0
24 3 C 1.008 4.70778 -2.0384 -21.5278 0.0186328 -0.0181028 0.0249756 0 0 0
1168 12 C 15.999 6.79895 -3.48801 -21.6606 0.0015828 0.00910206 0.00515453 0 0 0
1169 4 C 1.008 7.32416 -2.83633 -21.1961 0.00809946 0.0074327 -3.85413e-06 0 0 0
1170 4 C 1.008 7.40851 -4.20388 -21.8401 -0.00185622 0.00813677 -0.00264713 0 0 0
768 4 C 1.008 8.94213 -6.05108 -20.6145 0.00885296 0.0239249 0.00912393 0 0 0
1162 12 C 15.999 9.48168 -2.76793 -18.2342 0.00567426 -0.00105218 0.00844021 0 0 0
766 12 C 15.999 8.53504 -5.58809 -21.3469 0.00219634 0.00402984 0.000438214 0 0 0
767 4 C 1.008 7.8333 -6.17013 -21.6386 0.00292503 -0.00627161 0.0193332 0 0 0
355 12 C 15.999 3.93641 -7.61718 -21.2286 0.000727501 -0.00434196 0.0063961 -1 0 0
357 4 C 1.008 4.87292 -7.41952 -21.2178 0.000456486 -0.00172017 -0.020141 -1 0 0
356 4 C 1.008 3.87657 -8.47258 -21.6541 -0.00736419 -0.0126119 0.0243451 -1 0 0
1060 12 C 15.999 6.05246 -0.173784 -21.6731 -0.000419894 0.0019581 0.00174404 -1 0 0
682 12 C 15.999 9.82741 0.597544 -21.9706 0.0120984 0.000435985 -0.0030138 -1 0 0
1042 12 C 15.999 6.71966 -7.38335 -21.7684 -0.00849006 0.000155778 0.00509591 0 1 0
1044 4 C 1.008 6.60937 -8.06507 -22.4314 0.0186967 0.000693144 0.000216287 0 1 0
1163 4 C 1.008 8.60812 -2.96686 -18.5712 0.00128153 0.0105416 0.0130901 0 0 0
733 12 C 15.999 1.89438 0.165961 -21.9605 -0.00351936 0.00199027 -0.00302734 0 0 0
1043 4 C 1.008 6.64731 -7.84624 -20.9335 0.00910825 -0.00869805 0.00143711 0 1 0
519 4 C 1.008 2.22322 -9.67092 -21.9431 -0.0106965 -0.0197055 0.00611293 0 0 0
734 4 C 1.008 1.10384 0.665476 -21.7561 0.0137732 0.023839 0.0105607 0 0 0
431 4 C 1.008 2.41843 -5.69815 -19.267 -0.0163381 0.0172444 -0.00117271 0 0 0
827 4 C 1.008 6.54975 -0.840925 -20.2386 -0.00319917 0.0133679 0.0154322 0 0 0
826 12 C 15.999 6.72255 -1.38869 -19.4727 -0.00309043 -0.000993682 0.00492879 0 0 0
1753 15 C 197 -8.1564 2.0391 -26.0891 0 0 0 0 0 0
1757 15 C 197 -4.0782 2.0391 -26.0891 0 0 0 0 0 0
1770 15 C 197 -6.1173 4.0782 -26.0891 0 0 0 0 0 0
1771 15 C 197 -8.1564 6.1173 -26.0891 0 0 0 0 0 0
1774 15 C 197 -2.0391 4.0782 -26.0891 0 0 0 0 0 0
1775 15 C 197 -4.0782 6.1173 -26.0891 0 0 0 0 0 0
1787 15 C 197 -6.1173 8.1564 -26.0891 0 0 0 0 0 0
1789 15 C 197 -2.0391 8.1564 -26.0891 0 0 0 0 0 0
1144 12 C 15.999 -2.03302 -9.71304 -23.0721 -0.00399771 -0.00472974 -0.00625931 0 0 0
1145 4 C 1.008 -1.76893 9.38851 -22.7985 0.0214865 0.00170852 -0.0101525 0 -1 0
1470 4 C 1.008 -10.0065 9.52826 -21.5357 0.0126483 0.0352454 5.49057e-05 1 -1 0
1468 12 C 15.999 -9.13436 9.38267 -21.1691 0.00851816 0.00476284 -0.00241739 1 -1 0
1469 4 C 1.008 -9.17131 8.49784 -20.8058 -0.0258261 0.0115074 0.0103711 1 -1 0
1449 4 C 1.008 -5.92736 -0.542502 -20.6359 -0.000963167 0.00499643 -0.000767837 0 0 0
26 11 C 15.999 -1.70581 0.187751 -21.9716 -0.00441882 -0.00723817 0.00673867 0 0 0
1288 12 C 15.999 -7.71251 6.39654 -21.5774 -0.000523226 -0.0024953 -0.00612624 0 -1 0
1289 4 C 1.008 -8.61082 6.38151 -21.9077 -0.00607508 0.00179067 0.00890858 0 -1 0
1290 4 C 1.008 -7.3206 5.58954 -21.9113 -0.0190688 -0.0194114 0.0131913 0 -1 0
1354 12 C 15.999 -2.01683 7.87411 -21.658 0.00561216 -0.00275726 0.000900382 0 -1 0
1355 4 C 1.008 -2.02956 8.17182 -20.7482 0.0117575 0.00239535 -0.000951284 0 -1 0
1356 4 C 1.008 -2.83915 7.39616 -21.7657 0.00842446 -0.00998761 0.011427 0 -1 0
1814 15 C 197 -6.1173 2.0391 -24.3051 0 0 0 0 0 0
1816 15 C 197 -2.0391 2.0391 -24.3051 0 0 0 0 0 0
1822 15 C 197 -8.1564 4.0782 -24.3051 0 0 0 0 0 0
1823 15 C 197 -6.1173 6.1173 -24.3051 0 0 0 0 0 0
1824 15 C 197 -4.0782 4.0782 -24.3051 0 0 0 0 0 0
1825 15 C 197 -2.0391 6.1173 -24.3051 0 0 0 0 0 0
1831 15 C 197 -8.1564 8.1564 -24.3051 0 0 0 0 0 0
1832 15 C 197 -4.0782 8.1564 -24.3051 0 0 0 0 0 0
1330 12 C 15.999 -3.83267 2.17931 -21.7547 -0.0132877 0.00711063 -0.00426371 0 0 0
1331 4 C 1.008 -4.58471 1.69515 -21.4136 -0.0118395 0.00737694 -0.000781109 0 0 0
1332 4 C 1.008 -3.12147 1.53883 -21.7693 -0.00939096 0.0111514 0.0077216 0 0 0
1486 12 C 15.999 -1.971 4.12796 -21.8988 -0.00200191 -0.00064901 -0.00585418 0 -1 0
1487 4 C 1.008 -2.63199 3.4402 -21.8194 0.0270178 -0.0267795 0.00967568 0 -1 0
1488 4 C 1.008 -2.12095 4.69356 -21.1411 0.0140264 -0.0243486 0.0147943 0 -1 0
943 12 C 15.999 -6.14922 4.19899 -21.7409 -0.00430124 0.00231367 0.00201734 0 0 0
944 4 C 1.008 -6.60277 3.3723 -21.5762 -0.00706656 0.000198026 -0.0162758 0 0 0
945 4 C 1.008 -5.30182 3.93986 -22.1029 -0.0118529 0.00793507 -0.0196509 0 0 0
1095 4 C 1.008 -0.775512 2.618 -21.7054 0.00402409 0.0207392 0.006732 0 0 0
1222 12 C 15.999 -6.75508 9.90423 -22.5038 -0.00879092 0.0110604 0.00543344 0 -1 0
1223 4 C 1.008 -7.62377 9.50342 -22.4727 -0.00142653 -0.00539524 -0.000528983 0 -1 0
1224 4 C 1.008 -6.77323 -9.52394 -23.2859 -0.00502355 -0.00971347 -0.00912414 0 0 0
1094 4 C 1.008 -0.238196 1.53365 -20.7955 -0.0128084 0.0186586 0.0139127 0 0 0
505 12 C 15.999 -4.47748 6.62051 -21.6469 -0.00608988 -0.00978722 -0.00731159 0 0 0
506 4 C 1.008 -4.25321 5.93672 -22.2782 -0.0200411 -0.00792511 -0.0141081 0 0 0
507 4 C 1.008 -5.36338 6.40017 -21.359 0.00129066 -0.0121371 0.0135378 0 0 0
1500 4 C 1.008 -8.3258 1.58715 -21.6828 0.000601214 0.00036606 0.006373 0 0 0
1498 12 C 15.999 -7.57843 2.01502 -21.2649 0.00268281 0.0013923 0.00149131 0 0 0
1499 4 C 1.008 -7.89681 2.2594 -20.3957 0.00266583 0.0161518 -0.00289413 0 0 0
492 4 C 1.008 -0.615349 6.76409 -21.5178 -0.0116048 -0.0177045 0.0121017 0 0 0
253 12 C 15.999 -6.09109 9.22933 -17.7601 -0.00291849 0.00214513 0.00324432 0 -1 0
905 4 C 1.008 -0.712876 2.97454 -18.5725 0.00316559 0.00555243 -0.00757278 0 -1 0
904 12 C 15.999 0.208152 3.23517 -18.576 0.00347952 0.00463349 0.00165709 0 -1 0
906 4 C 1.008 0.512522 3.02912 -19.4601 0.00665414 0.0235151 -0.00141759 0 -1 0
254 4 C 1.008 -6.99844 9.13197 -17.4711 -0.00414591 0.00819039 0.00134352 0 -1 0
1093 12 C 15.999 0.0368771 2.27944 -21.3289 5.83976e-05 0.00378979 -0.000111022 0 0 0
491 4 C 1.008 -0.366154 5.49864 -22.3108 0.00881826 -0.00287732 -0.00502379 0 0 0
1228 12 C 15.999 10.0749 4.00962 -21.2435 -0.00186106 0.00469224 -0.00124897 -1 0 0
1230 4 C 1.008 9.76357 4.74863 -21.7663 0.00797215 -0.00146046 -0.015605 -1 0 0
1229 4 C 1.008 -9.48666 4.39563 -20.6311 -0.0147198 0.0121759 0.00703117 0 0 0
332 4 C 1.008 -9.68237 2.52061 -18.3072 -0.000694392 -0.00271292 0.00454888 0 0 0
1424 4 C 1.008 -4.35189 0.487812 -17.5789 -0.000285716 -0.00573119 0.00914566 0 0 0
99 4 C 1.008 0.403224 9.30505 -18.9525 0.0120181 -0.0127 0.0231507 0 -1 0
1761 15 C 197 0 2.0391 -26.0891 0 0 0 0 0 0
1765 15 C 197 4.0782 2.0391 -26.0891 0 0 0 0 0 0
1767 15 C 197 8.1564 2.0391 -26.0891 0 0 0 0 0 0
1778 15 C 197 2.0391 4.0782 -26.0891 0 0 0 0 0 0
1779 15 C 197 0 6.1173 -26.0891 0 0 0 0 0 0
1782 15 C 197 6.1173 4.0782 -26.0891 0 0 0 0 0 0
1783 15 C 197 4.0782 6.1173 -26.0891 0 0 0 0 0 0
1785 15 C 197 8.1564 6.1173 -26.0891 0 0 0 0 0 0
1791 15 C 197 2.0391 8.1564 -26.0891 0 0 0 0 0 0
1793 15 C 197 6.1173 8.1564 -26.0891 0 0 0 0 0 0
1254 4 C 1.008 0.450645 9.7639 -21.258 -0.0157782 -0.00471637 -0.00737723 0 0 0
601 12 C 15.999 6.53244 -9.16016 -19.6002 0.00517892 0.00136356 -0.000580152 0 0 0
684 4 C 1.008 9.9569 -0.232389 -22.4297 0.0167485 -0.00421286 0.00682061 -1 0 0
1252 12 C 15.999 0.546591 -9.61268 -21.995 -0.000268117 -0.000527115 -0.00172006 0 1 0
195 4 C 1.008 5.4297 1.64417 -19.8496 0.0282156 0.00523704 0.00399851 0 0 0
1062 4 C 1.008 6.61085 0.538643 -21.3617 0.0122299 0.00437272 -0.0267998 -1 0 0
477 4 C 1.008 2.10302 4.22248 -18.6128 0.0129159 -0.00383984 -0.0017757 0 0 0
1277 4 C 1.008 10.0892 6.915 -23.372 -0.0159896 -0.0010129 -0.00369026 -1 0 0
509 4 C 1.008 3.36981 8.52889 -16.9331 0.0232638 0.0134602 0.00732757 -1 0 0
602 4 C 1.008 6.98431 -9.45629 -18.8098 0.00423925 -0.011144 -0.00495578 0 0 0
1478 4 C 1.008 7.90737 9.58177 -21.169 0.00305804 -0.0278768 0.00240631 -1 0 0
1061 4 C 1.008 5.33375 0.265661 -22.1277 -0.00608281 -0.00251312 0.00649583 -1 0 0
490 12 C 15.999 0.080139 6.26036 -21.9408 -0.00375308 0.00023883 0.00365677 0 0 0
1477 12 C 15.999 8.43576 9.75659 -21.9479 0.00150047 -0.00258069 0.00719615 -1 0 0
1278 4 C 1.008 -9.41763 5.69053 -23.9453 -0.00814387 0.00762177 -0.0126631 0 0 0
1276 12 C 15.999 10.0873 5.9587 -23.3305 0.000816757 -0.000839617 0.000811097 -1 0 0
1381 12 C 15.999 4.6523 2.37892 -21.9455 -0.0054627 -0.000404852 0.00322592 0 0 0
1382 4 C 1.008 5.3008 3.01389 -22.2497 -0.00452708 0.000226171 0.00661985 0 0 0
517 12 C 15.999 3.0889 9.90218 -21.9787 0.00101481 0.00533233 0.00508349 0 -1 0
1383 4 C 1.008 3.96426 2.91115 -21.5459 -0.00726935 -0.00116192 0.0010035 0 0 0
399 4 C 1.008 1.81944 4.21911 -22.3414 0.00708417 0.0194395 0.0148095 0 0 0
397 12 C 15.999 2.39227 3.71159 -21.7664 0.00329073 0.00127566 0.00235522 0 0 0
398 4 C 1.008 1.92087 2.89125 -21.6212 -0.00666087 0.00471299 -0.0106421 0 0 0
1522 12 C 15.999 7.54329 2.11561 -21.3689 0.00166757 -0.00685268 -0.00487894 -1 0 0
1524 4 C 1.008 7.00182 2.9047 -21.3885 0.00603904 -0.00405753 -0.0129239 -1 0 0
1523 4 C 1.008 8.40568 2.40896 -21.663 0.00666409 -0.011993 0.0047539 -1 0 0
735 4 C 1.008 2.49549 0.810323 -22.3343 0.0139198 -0.0112782 0.00222683 0 0 0
871 12 C 15.999 6.31082 4.45205 -21.8642 0.000146828 -0.00105746 -0.000571374 0 0 0
872 4 C 1.008 6.0744 5.05735 -21.1612 0.00102407 0.000833595 -0.00209361 0 0 0
1818 15 C 197 2.0391 2.0391 -24.3051 0 0 0 0 0 0
1820 15 C 197 6.1173 2.0391 -24.3051 0 0 0 0 0 0
1826 15 C 197 0 4.0782 -24.3051 0 0 0 0 0 0
1827 15 C 197 2.0391 6.1173 -24.3051 0 0 0 0 0 0
1828 15 C 197 4.0782 4.0782 -24.3051 0 0 0 0 0 0
1829 15 C 197 6.1173 6.1173 -24.3051 0 0 0 0 0 0
1830 15 C 197 8.1564 4.0782 -24.3051 0 0 0 0 0 0
1833 15 C 197 0 8.1564 -24.3051 0 0 0 0 0 0
1834 15 C 197 4.0782 8.1564 -24.3051 0 0 0 0 0 0
1835 15 C 197 8.1564 8.1564 -24.3051 0 0 0 0 0 0
349 12 C 15.999 2.74176 7.12119 -21.3332 0.00114032 0.000596992 0.00599926 0 0 0
350 4 C 1.008 2.02954 6.88993 -21.9295 0.0128847 0.00552112 -0.00982035 0 0 0
351 4 C 1.008 2.72496 6.43807 -20.6627 -0.012019 -0.00502221 -0.00024636 0 0 0
442 12 C 15.999 5.74925 -9.92292 -22.6913 -0.00328225 -0.00345134 0.00220532 0 1 0
443 4 C 1.008 5.82758 9.29773 -22.1137 -0.00466804 -0.0237764 -0.0244837 0 0 0
444 4 C 1.008 4.8128 -9.85995 -22.8793 -0.00157349 -0.003063 -0.0061247 0 1 0
873 4 C 1.008 7.16464 4.75951 -22.1687 -0.0112674 0.0126067 -0.0185994 0 0 0
1479 4 C 1.008 7.81473 9.70963 -22.675 0.00323042 0.00394522 0.00549581 -1 0 0
518 4 C 1.008 2.91618 8.96365 -21.9041 0.0270712 -0.000734592 -0.011096 0 -1 0
865 12 C 15.999 5.02938 4.61106 -19.3238 -0.0126986 0.00410616 -0.00247949 0 0 0
897 4 C 1.008 8.13717 6.70594 -15.473 0.00885591 -0.0169582 -0.00324871 -1 0 0
333 4 C 1.008 -8.27738 3.06895 -18.1761 -0.00680515 0.0163454 -0.00963113 0 0 0
331 12 C 15.999 -8.80679 2.45824 -18.689 -0.000999727 0.000455127 0.00343238 0 0 0
529 12 C 15.999 5.38988 6.98968 -20.8962 -0.00180277 0.011094 -0.0021425 -1 0 0
866 4 C 1.008 4.10185 4.81713 -19.2078 -0.0168999 -0.0190298 0.00478237 0 0 0
447 4 C 1.008 3.47231 9.23016 -18.5619 0.0028417 -0.00488823 -0.00269205 -1 0 0
97 12 C 15.999 0.941796 8.76568 -19.5317 -0.000651347 -0.00428238 0.00367418 0 -1 0
531 4 C 1.008 5.44387 6.36064 -20.1765 0.00565261 0.000668494 -0.0120085 -1 0 0
530 4 C 1.008 4.49151 6.9108 -21.2171 -0.00203577 0.00818815 -0.000702617 -1 0 0
811 12 C 15.999 -2.35577 -4.18352 -15.4113 -0.0028409 -0.00223927 -0.000887149 0 1 0
968 4 C 1.008 -6.7057 -4.24832 -16.492 0.00289657 0.0260062 0.00125617 0 0 0
1132 12 C 15.999 -5.01101 -3.67358 -19.1455 -0.00281957 0.00270058 0.00734672 1 0 0
1261 12 C 15.999 -2.85153 -8.59427 -19.1305 -0.00277212 -0.000263402 -0.00113233 -1 1 0
879 4 C 1.008 -9.23831 -0.197333 -20.0067 -0.00858658 -0.0010542 0.0106465 1 0 0
878 4 C 1.008 -9.19649 -1.1382 -18.8211 0.00165631 -0.0194808 -0.00467512 1 0 0
877 12 C 15.999 -8.66095 -0.801306 -19.5395 -0.00034322 0.00176827 0.00398402 1 0 0
812 4 C 1.008 -2.90482 -3.6677 -16.002 0.00446465 0.0117752 0.00473374 0 1 0
1263 4 C 1.008 -2.74484 -8.57652 -18.1792 0.0605062 0.0216633 -0.00894217 -1 1 0
180 4 C 1.008 0.901945 -8.45594 -18.3216 0.0205452 0.0113788 0.00739495 0 0 0
1508 4 C 1.008 -2.0271 -6.79906 -18.536 -0.015613 -0.0165681 0.029326 0 0 0
424 12 C 15.999 -1.53965 -3.72312 -12.7539 0.00645446 0.00751767 0.00477688 0 0 0
1507 12 C 15.999 -1.37722 -6.38209 -17.9702 0.00104095 -0.00128518 -0.00121443 0 0 0
1509 4 C 1.008 -1.87899 -5.75392 -17.4506 0.0103184 -0.0142093 0.0232261 0 0 0
426 4 C 1.008 -1.61591 -2.90865 -12.2567 0.0201714 0.0114804 0.000229388 0 0 0
1262 4 C 1.008 -3.50471 -7.91835 -19.3114 0.0250413 0.032818 0.0217181 -1 1 0
887 4 C 1.008 -4.24707 -5.48518 -13.1991 0.00771866 0.0102988 0.00558379 -1 0 0
888 4 C 1.008 -5.31098 -4.72516 -13.9624 -0.00450932 0.00251285 0.0150723 -1 0 0
886 12 C 15.999 -4.40929 -5.03911 -14.0305 -0.00482624 0.00383295 0.00477639 -1 0 0
386 4 C 1.008 9.19878 -2.77543 -9.9332 -0.00391977 0.00524546 -0.000295376 -1 0 0
387 4 C 1.008 9.5405 -1.54392 -10.7449 -0.00487319 0.00317463 -0.00361473 -1 0 0
385 12 C 15.999 9.20161 -1.81908 -9.89281 -0.00672615 0.00540116 -0.00386312 -1 0 0
120 4 C 1.008 -4.8605 -2.37437 -12.7527 0.00643232 -0.0402797 0.00265044 0 0 0
119 4 C 1.008 -3.66955 -2.30705 -11.8203 -0.00137289 0.0223971 0.00785014 0 0 0
118 12 C 15.999 -4.62603 -2.34365 -11.8249 -0.000471145 -0.000429642 0.00283555 0 0 0
813 4 C 1.008 -2.96259 -4.51982 -14.7517 -0.00757159 -0.000362946 -0.00446443 0 1 0
241 12 C 15.999 -4.50136 -6.34371 -18.8527 0.00111069 0.00150822 0.0030009 0 1 0
242 4 C 1.008 -5.19229 -6.65474 -18.2676 -0.00742783 -0.00169738 -0.00893832 0 1 0
1231 12 C 15.999 -4.41389 -2.25084 -16.6572 0.00108645 -0.00251105 0.00141761 0 1 0
1233 4 C 1.008 -3.99672 -1.45476 -16.9867 0.00322248 0.00150693 0.0139259 0 1 0
243 4 C 1.008 -4.44133 -5.405 -18.6753 -0.00307483 0.000960246 0.00727607 0 1 0
1127 4 C 1.008 -8.3187 -5.8611 -14.6385 -0.00279996 0.00674737 0.00338771 1 1 0
1128 4 C 1.008 -7.19484 -6.37502 -13.7638 -8.81362e-05 0.00347639 -0.00224289 1 1 0
373 12 C 15.999 -2.01823 -1.68879 -10.8356 -0.00384945 -0.00529471 0.000995746 1 0 0