1835
Atoms. Timestep: 2185
N -3.7285 -1.46466 -21.1792
H -3.61492 -0.889236 -22.0491
H -4.5559 -1.15109 -20.6112
H -3.82048 -2.48504 -21.4078
C -2.47963 -1.17824 -20.4215
H -2.76087 -0.607025 -19.548
C -1.78866 -2.49956 -19.9738
H -2.55311 -3.15244 -19.495
H -1.06423 -2.23075 -19.1699
C -1.01638 -3.3285 -21.0349
H -1.63713 -3.52571 -21.9344
H -0.826926 -4.30777 -20.536
C 0.326815 -2.70877 -21.4687
H 0.701245 -2.06513 -20.6384
H 0.207439 -2.09212 -22.391
N 1.31642 -3.80969 -21.7073
H 0.991802 -4.76013 -21.727
C 2.62546 -3.62348 -21.6257
N 3.44486 -4.64533 -21.522
H 4.3996 -4.43418 -21.3339
H 3.0457 -5.55807 -21.3302
N 3.17285 -2.42762 -21.6029
H 2.57856 -1.63382 -21.6234
H 4.16826 -2.38202 -21.4479
C -1.55882 -0.26924 -21.257
O -1.97858 0.0907484 -22.3862
O -0.439546 0.0603472 -20.7921
Cl -5.76088 8.15715 -13.8832
Cl -9.3627 6.96527 11.6774
Na 9.10954 9.3825 -18.0441
O -8.67821 -2.02375 12.7285
H -9.49881 -2.53537 12.8981
H -8.09554 -2.74893 12.4101
O 8.86162 -0.396836 7.0111
H 8.41275 -0.22493 7.86805
H 9.79016 -0.464791 7.31761
O -2.3934 2.03938 -6.21676
H -1.7059 1.39427 -6.4871
H -2.76173 1.57944 -5.43563
O -3.99484 9.32231 -17.8024
H -3.57302 8.67397 -18.3702
H -3.2423 9.59045 -17.2287
O 7.2809 -2.03689 -2.49224
H 7.22339 -1.83077 -1.53352
H 7.92943 -2.75522 -2.47103
O -1.39322 7.0905 6.64461
H -1.35645 6.78961 7.57217
H -0.795711 6.45224 6.1962
O -7.76626 3.19509 1.52146
H -7.48514 2.55248 0.838749
H -6.97797 3.16483 2.10514
O 4.85861 -8.51546 -12.2564
H 4.7326 -8.61596 -11.2938
H 5.52343 -9.22146 -12.4195
O 0.541288 -1.56995 15.7465
H 1.26423 -2.23179 15.7078
H 0.176672 -1.70501 14.8497
O -0.00742647 -2.42492 13.1923
H -0.581395 -3.12779 13.5647
H 0.756071 -2.96309 12.8988
O -7.01527 8.50141 10.2535
H -7.76198 7.98548 10.628
H -6.5752 7.82119 9.69866
O -6.62286 5.42325 -15.3944
H -6.17499 4.62817 -15.0422
H -6.07622 6.14896 -15.0311
O -4.4551 -5.70207 1.9412
H -4.55929 -6.67666 1.98817
H -5.36322 -5.4447 1.66795
O -8.71651 9.45185 -8.35086
H -8.32616 9.7141 -9.20844
H -7.96197 9.02336 -7.9034
O -10.0882 -5.81653 19.1588
H -9.54674 -5.30287 18.5167
H -9.57509 -5.72145 19.9687
O 0.95129 -1.32942 -0.64391
H 1.43612 -1.74009 -1.39224
H 1.29418 -1.91658 0.0735069
O -2.65636 3.01191 8.6712
H -2.86257 2.07763 8.47258
H -1.98516 3.17344 7.97811
O 5.5642 8.91121 -15.2033
H 4.94334 9.6632 -15.1273
H 6.05112 9.01007 -14.3578
O -4.28244 0.382622 2.06513
H -4.35033 -0.570432 2.26387
H -3.78108 0.345413 1.22985
O 9.30434 6.49631 -2.7435
H 8.41521 6.2502 -3.08759
H 9.87719 6.02546 -3.36214
O 3.84275 -7.59629 8.27723
H 3.63125 -7.31023 9.19109
H 4.82159 -7.54815 8.33339
O -3.44429 -5.20145 7.67292
H -3.81689 -5.29126 8.57059
H -3.62936 -6.09302 7.31628
O -4.10705 4.8191 10.0482
H -3.48489 5.11611 10.7469
H -3.53398 4.1799 9.55678
O -2.43318 -9.95239 -1.08148
H -1.54991 9.79199 -1.43878
H -2.3148 9.76105 -0.144281
O -4.77155 -8.42866 1.79286
H -5.4404 -9.11248 1.59493
H -4.33715 -8.8253 2.58215
O -3.24853 -2.75578 12.8267
H -2.82629 -3.0021 11.9738
H -2.57095 -3.0655 13.4601
O -3.4763 -6.49631 18.142
H -3.25786 -5.56615 18.3275
H -2.57116 -6.87783 18.1247
O 3.63298 7.20182 12.3143
H 4.37779 6.58168 12.2259
H 2.85966 6.62079 12.1457
O -9.53374 -7.48767 -15.1942
H -8.79611 -7.75002 -15.7747
H -10.0241 -8.32914 -15.0904
O 4.27049 4.34723 -7.09493
H 4.74751 5.08407 -6.65422
H 4.02348 3.77161 -6.33961
O -3.7869 0.686805 16.1525
H -4.15691 1.44446 16.6454
H -3.22711 0.308974 16.8675
O -6.4398 9.52437 -16.6276
H -6.20325 9.1262 -15.7607
H -5.57499 9.43454 -17.0932
O 0.0897006 9.16972 -1.78468
H 0.152207 8.79206 -2.69032
H 0.361165 8.39044 -1.2667
O -10.0289 -3.82291 8.4835
H 9.72784 -3.75244 9.36352
H -9.08692 -3.7302 8.74491
O -6.0992 9.38841 12.6926
H -6.39534 9.02978 11.8315
H -6.9089 9.25086 13.2287
O -3.39179 2.36442 12.4048
H -2.64264 2.59163 11.8202
H -2.9048 1.82387 13.0644
O 2.47149 7.96368 3.86482
H 2.27792 8.4746 3.06014
H 2.6372 7.0732 3.49185
O 6.20162 -3.74967 12.9528
H 6.30475 -4.12876 13.8479
H 6.33751 -4.53716 12.3941
O -8.64191 0.582991 -8.24413
H -9.58613 0.739099 -8.05443
H -8.44837 1.31148 -8.87292
O -8.35657 3.73484 16.3598
H -7.52883 4.26696 16.2977
H -7.99976 3.01596 16.924
O -3.92951 9.4994 6.57761
H -4.07752 8.61673 6.1713
H -3.69911 9.21146 7.48455
O -7.73786 -1.24466 -10.2618
H -7.98907 -0.733855 -9.46585
H -7.49964 -2.11488 -9.87825
O 5.60645 5.29081 3.24022
H 5.80855 6.0635 2.68624
H 4.62863 5.28067 3.19327
O -3.01425 -6.70466 -21.5582
H -3.49749 -6.49569 -20.7295
H -3.40831 -7.55288 -21.7883
O -4.1604 2.20831 18.4228
H -3.6474 1.44066 18.7337
H -3.48925 2.91479 18.503
O -1.81966 3.77497 -9.5569
H -1.00054 3.25257 -9.43179
H -1.91911 4.12601 -8.64677
O 1.27048 0.413565 -3.93401
H 1.73814 1.14848 -3.50382
H 0.43169 0.409845 -3.45329
O -6.45903 -3.30167 -3.18236
H -7.26023 -2.9577 -3.62754
H -5.80214 -3.22142 -3.89594
O -3.05207 0.480574 7.62227
H -2.38332 0.112728 7.0167
H -3.2561 -0.304745 8.17453
O -4.65233 1.73667 5.77654
H -5.41849 1.12634 5.73093
H -4.18057 1.36456 6.55145
O 8.74775 9.44145 16.7216
H 9.53369 9.32999 17.2921
H 8.6599 8.5392 16.3463
O 8.16373 -8.4041 2.99258
H 8.42975 -9.19188 3.5158
H 8.04974 -7.74657 3.71429
O 3.24311 -3.97102 6.67152
H 2.94666 -4.82337 6.29418
H 3.61318 -4.26611 7.53106
O 6.24619 7.92036 2.38554
H 6.1562 7.96224 3.36395
H 7.19287 8.07786 2.275
O 7.54027 0.427486 -3.82489
H 7.5639 -0.449861 -3.38795
H 8.47915 0.701307 -3.76787
O -4.80139 4.33487 4.89255
H -4.96197 4.04513 3.96927
H -4.70402 3.44955 5.30697
O -1.85731 -3.1452 6.85254
H -2.48865 -3.88411 7.02438
H -1.04227 -3.66965 6.72047
O 5.9467 4.06322 18.5409
H 6.78911 3.56045 18.4853
H 6.27006 4.96714 18.677
O -0.107764 -4.28975 -10.9089
H 0.306245 -4.86636 -11.5606
H 0.226478 -4.68133 -10.0682
O 5.44624 1.57897 3.84686
H 6.09981 0.877125 4.0307
H 4.77293 1.11929 3.30037
O 0.0680478 5.88715 18.177
H 0.787216 5.22248 18.27
H 0.182676 6.15382 17.235
O -9.56425 -2.05756 -1.62761
H -9.30615 -2.0405 -2.57775
H -8.71214 -2.30396 -1.21167
O -3.37382 -8.76399 -11.983
H -4.20616 -9.22204 -11.7422
H -3.09783 -9.29762 -12.7532
O 5.93729 9.54803 12.2393
H 6.91712 9.49865 12.2283
H 5.75328 8.94826 11.4898
O 9.98628 -5.90075 -13.1096
H 10.0924 -6.59401 -12.4273
H -9.90826 -6.4044 -13.9054
O 7.50001 -5.45989 18.0838
H 7.19259 -6.38865 18.074
H 8.35359 -5.55078 18.5524
O 9.17895 -1.80777 -7.07214
H 9.80126 -2.50696 -6.7906
H 8.63601 -2.30374 -7.7165
O -0.7401 -9.00419 15.6621
H 0.118284 -9.47411 15.702
H -1.07802 -9.32242 14.8074
O -9.21798 -8.36872 4.35589
H -9.92558 -9.04539 4.34761
H -8.44316 -8.9458 4.1669
O -6.25302 6.27527 1.95504
H -5.42419 6.65512 1.59764
H -6.65383 5.89497 1.15536
O -3.73596 0.260158 -4.58208
H -4.0495 -0.206078 -5.38803
H -4.58477 0.606201 -4.23649
O 2.13191 -6.68295 -4.66061
H 1.56988 -7.10277 -3.97984
H 2.13784 -7.38975 -5.34446
O 1.00968 -9.91538 18.6528
H 1.22392 -8.96058 18.6059
H 0.0906692 -9.89008 18.9703
O -9.31651 -3.88545 -6.40959
H -9.39295 -4.40544 -7.23781
H -8.91435 -4.57666 -5.84167
O 7.21866 -7.17646 -10.3108
H 6.93504 -6.4768 -9.68674
H 6.50368 -7.82218 -10.1641
O -4.82286 1.70506 -7.51342
H -4.85124 0.735964 -7.37636
H -3.92916 1.90557 -7.16756
O -8.67391 -6.00384 3.04556
H -8.96027 -6.85858 3.43484
H -8.30813 -5.57704 3.8489
O 2.67236 -1.37962 7.73957
H 2.36473 -1.73524 8.59304
H 2.80488 -2.2045 7.23894
O 1.33414 5.96988 11.5249
H 1.41592 6.11845 10.5585
H 1.37258 4.99105 11.5245
O -3.9478 4.00143 -2.40814
H -3.95758 3.62293 -1.50882
H -3.06563 4.4183 -2.39974
O -5.07093 -4.61914 13.5923
H -4.46355 -5.38771 13.646
H -4.44224 -3.92843 13.2927
O -8.25181 2.62572 -10.0762
H -8.99183 3.2568 -9.94585
H -8.08256 2.80057 -11.0226
O 6.0315 2.97836 -8.62949
H 5.28483 3.48837 -8.23858
H 6.02962 2.20037 -8.02555
O 4.29405 4.27214 10.4325
H 4.99079 4.76598 10.8957
H 4.79993 3.51877 10.0661
O -6.67882 -0.131754 6.15077
H -6.38782 -0.62434 6.95122
H -7.55851 0.157271 6.43391
O 6.74494 -5.89801 11.2566
H 6.33183 -6.5802 11.8272
H 6.63645 -6.3331 10.386
O 7.06042 5.71434 -16.7354
H 6.12645 5.87331 -16.5022
H 7.28402 4.97058 -16.1282
O 4.70938 5.83143 6.5202
H 5.28826 5.79808 7.30872
H 4.61231 4.87307 6.32675
O -7.17769 -7.37354 -8.53253
H -6.88441 -7.98516 -7.8202
H -6.37581 -6.81773 -8.63514
O 9.35142 9.25083 -2.35592
H -9.95204 9.49443 -2.70497
H 9.35312 8.28402 -2.52054
O 6.62794 9.38019 -12.6559
H 7.52845 9.44946 -12.2752
H 6.41706 8.45842 -12.3758
O 1.30932 5.96161 8.76762
H 1.46324 5.03514 8.47611
H 1.69755 6.45103 8.00961
O -5.8952 -8.82166 -3.74842
H -5.65831 -7.99895 -3.2817
H -4.98849 -9.12534 -3.99687
O 1.37102 -1.95011 -10.9139
H 0.823341 -1.16965 -10.7144
H 0.700995 -2.65659 -10.9423
O 2.232 -4.53112 18.3387
H 2.28513 -3.79301 18.9573
H 3.02082 -4.36769 17.7743
O 1.34566 3.31164 3.91054
H 1.23981 2.48374 4.427
H 1.21214 2.95058 3.01241
O 9.79629 -5.70233 15.1028
H -9.61839 -6.21025 14.757
H 9.41977 -6.38531 15.6901
O 5.73328 0.930019 -10.6299
H 5.85132 1.67541 -10.0185
H 5.70768 0.163539 -10.0334
O 9.33584 -3.48946 13.5149
H 9.45177 -4.33063 14.0113
H 8.94938 -2.93273 14.221
O 5.83993 2.10414 9.81849
H 6.58397 2.63119 9.45943
H 6.13344 1.21746 9.54587
O -2.19117 1.77461 4.52004
H -3.14081 1.82234 4.75681
H -1.98389 0.862267 4.79727
O 8.5955 5.49833 13.2023
H 9.16333 4.74505 13.4716
H 9.24143 6.01632 12.6732
O 1.62227 -9.22939 12.655
H 2.28464 -9.54335 13.3035
H 1.91141 -9.74501 11.8691
O 6.32792 -4.97425 -1.06554
H 6.25537 -5.8706 -1.4591
H 7.27267 -4.75393 -1.20318
O 3.69137 6.43203 -10.9446
H 4.58131 6.50718 -11.3404
H 3.63332 7.3211 -10.5341
O -4.26079 7.76058 0.784185
H -4.0834 7.62405 -0.17081
H -3.41774 8.16038 1.07987
O 8.11991 5.24952 -19.2082
H 7.69936 5.41371 -18.3356
H 7.33657 5.12113 -19.7775
O 6.79685 4.56933 15.751
H 7.03476 3.75003 15.2674
H 7.63207 4.70995 16.2325
O -4.55718 -3.32125 -5.33725
H -3.85221 -3.5767 -4.70706
H -4.90859 -4.20429 -5.56772
O -1.5614 -4.24518 14.4473
H -1.12982 -4.47785 15.2952
H -2.05383 -5.07436 14.2553
O 0.491181 2.4032 -8.86859
H 0.981474 1.80939 -8.26035
H 0.876243 3.2571 -8.58103
O -9.94082 4.71018 2.32322
H -9.17119 4.14893 2.0817
H 9.89076 4.93489 1.44013
O 0.961124 -3.75046 4.04075
H 0.758009 -4.22515 4.87717
H 0.924815 -4.48313 3.38954
O 0.797209 -5.42875 1.84558
H 1.50683 -6.0202 1.51492
H 0.0304036 -5.77425 1.34647
O -1.8619 9.76312 -16.1669
H -0.915004 9.87931 -16.0347
H -2.17088 9.51923 -15.272
O 2.86944 1.25317 6.92618
H 2.9269 0.353516 7.32284
H 2.23508 1.06736 6.20327
O 5.8052 -0.207949 18.3776
H 5.85435 -1.18111 18.3733
H 6.46417 0.0101859 17.6861
O 7.7686 -3.29239 -8.93367
H 8.27189 -3.58979 -9.70092
H 7.26352 -4.10291 -8.7058
O 8.10874 0.540434 -17.8313
H 8.47632 1.43046 -18.0381
H 7.58616 0.750492 -17.0238
O 6.15132 9.93282 6.66664
H 6.0719 9.17867 6.04237
H 7.06599 9.79271 6.98273
O -1.94695 -3.95081 18.3609
H -1.34252 -3.23561 18.6474
H -1.36814 -4.36698 17.6901
O -7.33362 7.2958 4.22811
H -6.91647 6.82907 4.97819
H -6.88012 6.86994 3.4602
O 0.337868 9.22806 -13.8285
H -0.615526 9.13353 -13.6772
H 0.689703 9.03745 -12.9326
O -2.00903 3.98057 18.51
H -1.37567 3.23168 18.5555
H -1.37288 4.71846 18.4405
O 2.1402 4.07895 18.2811
H 2.68189 4.13901 17.4705
H 2.75251 3.59092 18.8553
O -4.12284 -8.55375 9.88318
H -3.94589 -9.21912 10.5829
H -3.30527 -8.6477 9.35035
O 7.09615 7.04869 18.2693
H 6.61677 7.11429 17.4274
H 6.95457 7.93913 18.6418
O 1.88689 0.0666504 18.5418
H 2.72497 0.558496 18.5483
H 1.24394 0.792201 18.6415
O 6.94461 -8.176 17.7521
H 6.85209 -8.98658 18.3006
H 7.9068 -8.21718 17.5444
O -8.49313 -1.33422 15.4127
H -7.54738 -1.09223 15.4319
H -8.58867 -1.51172 14.4516
O -1.01113 9.94459 13.0784
H -0.87604 8.96795 13.1069
H -0.0794303 -9.75879 12.9345
O -3.56498 6.66981 -4.35445
H -2.64806 6.37704 -4.48008
H -3.55014 7.0475 -3.45212
O 0.194291 8.09602 -4.27104
H -0.190081 7.21309 -4.44012
H -0.378326 8.65128 -4.85018
O 3.34358 -3.9 -10.5493
H 2.79336 -3.14768 -10.8617
H 3.75851 -4.22845 -11.376
O 4.63088 1.77747 12.3907
H 4.79377 1.88327 11.4344
H 5.49452 1.39919 12.6528
O 4.06782 -8.69318 2.75401
H 4.85244 -8.65554 2.1604
H 4.50899 -8.51155 3.61722
O 6.80968 5.83642 8.33414
H 7.4784 6.11795 7.67872
H 7.14879 4.94208 8.55464
O 5.30078 5.00948 -13.8547
H 4.84981 5.46232 -14.593
H 4.56067 4.50459 -13.4522
O -6.10061 4.12639 -7.03742
H -6.14854 4.01656 -6.06841
H -5.73254 3.25334 -7.29152
O 7.55872 3.84449 -14.8248
H 8.21935 3.75044 -14.102
H 6.76793 4.12741 -14.3164
O 2.87549 5.40943 2.93148
H 2.67289 5.21047 1.99279
H 2.41282 4.66786 3.37467
O -3.77163 2.72338 0.0410336
H -2.99946 2.85141 0.639943
H -3.56662 1.80351 -0.239998
O -5.18892 2.92599 2.50819
H -4.94137 1.97482 2.56984
H -4.70265 3.15582 1.69843
O 9.14363 9.54195 4.50111
H 8.90652 9.3282 5.42527
H 9.48452 8.67382 4.18821
O -0.778552 0.264221 -1.94949
H -0.547746 1.16503 -1.62756
H -0.14866 -0.290361 -1.42968
O -6.62769 -9.01996 -6.41067
H -6.48383 -9.97814 -6.56207
H -6.2934 -8.92696 -5.49553
O 7.66427 -0.0534368 9.43672
H 8.31305 0.425462 9.99406
H 7.29618 -0.703137 10.0723
O -6.12394 -7.72494 5.14256
H -6.79473 -7.0549 4.95312
H -6.45933 -8.51972 4.68249
O -4.52875 1.60317 -12.556
H -4.83396 1.93486 -11.6783
H -5.05512 0.778256 -12.6009
O -1.96666 -9.71163 -9.78375
H -2.27019 -9.2412 -10.5857
H -1.91357 9.3528 -10.1128
O 0.0129949 -5.11415 6.21594
H -0.752949 -5.56071 5.79285
H 0.319985 -5.82858 6.81027
O 0.870204 -2.55508 -4.88604
H 1.47373 -1.86979 -5.24926
H 0.0988541 -2.00297 -4.62976
O 6.60199 4.82362 0.349153
H 7.52837 5.11663 0.204331
H 6.74646 4.17211 1.07054
O 3.42987 8.92323 -9.74601
H 3.92741 9.76095 -9.70652
H 3.57478 8.60128 -8.82376
O -7.62819 -8.08083 -17.1783
H -6.98012 -7.8075 -17.842
H -7.2245 -8.93294 -16.8863
O 3.12166 -1.337 -6.11221
H 3.80874 -0.906663 -5.56752
H 3.63414 -1.94871 -6.66846
O 1.73922 3.4039 10.7198
H 1.6004 3.25473 9.75947
H 2.6926 3.646 10.7074
O -9.52722 6.96723 -10.5858
H -8.94312 6.70247 -9.85066
H -8.96296 6.74226 -11.352
O -7.73217 5.84417 -8.66239
H -7.254 5.13299 -8.18827
H -6.99814 6.24774 -9.17386
O -8.90972 8.61127 -14.0288
H -7.94111 8.65304 -13.9156
H -9.00448 7.78376 -14.5283
O -8.19988 -7.21393 14.7472
H -7.36634 -7.44594 14.2941
H -8.14893 -7.79151 15.5354
O 0.971732 -6.68994 11.9234
H 0.00457776 -6.85365 11.9709
H 1.26859 -7.55254 12.2974
O 4.19877 -8.6864 -14.8898
H 4.23216 -8.54821 -13.9178
H 5.05688 -8.28253 -15.1324
O 4.35188 4.17305 13.7189
H 4.32918 3.82138 14.6389
H 4.31957 3.33425 13.2103
O 2.15711 -3.68766 15.2125
H 3.04352 -3.7791 15.6228
H 2.34171 -3.86767 14.2657
O -9.95442 7.24775 3.45909
H -10.0134 6.29376 3.22897
H -9.02862 7.2759 3.79139
O -3.39754 6.05266 -9.99607
H -2.89838 5.20917 -10.0389
H -2.73373 6.6784 -10.3399
O -0.571112 5.55062 -12.1346
H -0.275358 4.72578 -12.5618
H 0.0314753 5.56685 -11.3603
O -0.912575 5.55707 -4.55597
H -0.00469205 5.20248 -4.7068
H -1.08811 5.20341 -3.65409
O 4.75785 3.09171 6.03442
H 4.90417 2.57184 5.21279
H 4.14123 2.4868 6.50023
O 8.38506 -3.48711 2.11935
H 9.14813 -2.96228 2.4489
H 7.96895 -3.71534 2.97938
O 9.02444 -1.86015 15.7904
H 8.96583 -2.04692 16.7458
H 9.97347 -1.63761 15.6905
O 8.18445 2.55726 18.2082
H 9.0115 2.28174 18.6689
H 7.98184 1.74235 17.7015
O -3.91821 4.29588 14.4519
H -4.0264 3.65771 13.7234
H -2.93666 4.29619 14.506
O -7.05742 6.07417 13.6485
H -7.73371 6.36216 13.0035
H -7.05827 5.11382 13.4695
O 1.26435 4.0291 14.9784
H 1.71997 3.25719 14.5865
H 2.00005 4.63788 15.1502
O -3.48597 9.45726 11.6704
H -4.26506 9.27155 12.2373
H -2.76264 9.47814 12.3238
O 4.40367 -3.29515 2.19492
H 4.59975 -3.10335 3.13864
H 4.82098 -4.17477 2.07665
O -2.30794 -3.85837 10.5006
H -2.91618 -4.62552 10.4325
H -1.46359 -4.24586 10.1932
O 8.46545 6.38598 6.21008
H 9.40492 6.11855 6.07061
H 8.03638 5.584 5.82824
O -9.33042 -5.73489 -8.46267
H -8.5471 -6.3255 -8.48923
H -10.0275 -6.41542 -8.45985
O 4.66824 -2.58074 4.83532
H 4.17772 -3.11773 5.49769
H 5.43808 -2.30801 5.38003
O -4.05484 5.8051 18.2854
H -3.36262 6.50184 18.2457
H -3.48552 5.03519 18.4847
O 4.58853 -5.61603 -12.3835
H 5.49852 -5.61129 -12.7338
H 4.44343 -6.57471 -12.3157
O -1.24533 4.16538 13.9529
H -0.410626 4.20887 14.4732
H -0.984249 3.50824 13.2739
O -3.63348 -7.58464 -0.56216
H -3.26406 -8.43502 -0.895536
H -4.08846 -7.88808 0.253337
O 6.20444 0.82764 -7.01117
H 6.0473 0.0261905 -7.56289
H 5.70266 0.61109 -6.20254
O -10.0313 4.07895 10.3757
H -9.90804 4.87564 10.9302
H -9.35737 4.25524 9.68731
O 0.360625 1.13969 15.8624
H 0.516618 0.17257 15.9471
H 1.08792 1.38781 15.2562
O -8.98316 -1.52789 -12.7461
H -8.71808 -1.49296 -11.8043
H -9.32272 -0.617408 -12.8858
O 6.93816 -8.09265 -15.0075
H 7.00552 -7.37477 -14.3428
H 7.7161 -8.63685 -14.764
O -7.48571 -6.40515 -1.37882
H -8.30985 -6.2841 -1.89613
H -7.66302 -7.28639 -0.967587
O -6.8018 -2.63806 4.87483
H -6.80997 -2.41911 3.92415
H -6.67225 -1.75459 5.26988
O 3.31931 -8.26503 -1.42838
H 4.22028 -7.94862 -1.65714
H 3.14948 -7.76321 -0.603514
O 7.87448 -3.98862 4.72246
H 8.78391 -3.80527 5.05134
H 7.36753 -3.36081 5.28102
O -9.11026 6.40687 -15.8536
H -9.39311 5.50841 -16.1166
H -8.16891 6.19022 -15.6594
O 9.34328 3.59838 -12.7916
H -9.89207 3.75651 -12.916
H 9.26338 3.81459 -11.8398
O 0.0664581 -4.69948 16.6538
H 0.730977 -4.40567 15.9945
H 0.677147 -4.78081 17.4133
O 6.5663 -2.9177 18.087
H 7.43457 -2.51986 18.3053
H 6.80957 -3.86663 18.1641
O 9.39352 1.43662 10.9885
H 9.68098 2.37011 10.9089
H -9.9195 0.990682 11.0596
O 2.05849 7.75659 -15.6835
H 1.41653 7.8331 -14.9605
H 2.00318 8.65601 -16.0526
O -2.98966 -6.45359 13.7475
H -2.56258 -6.91562 12.9968
H -3.20791 -7.19707 14.3493
O -6.22534 -0.554783 18.302
H -6.98731 -1.11878 18.5549
H -5.46638 -1.10303 18.5941
O -7.94586 -9.02867 -10.5691
H -7.71314 -8.32346 -9.92721
H -8.7642 -8.66083 -10.9626
O 8.60151 3.5412 -7.82525
H 8.9375 2.69166 -7.47107
H 7.7199 3.26035 -8.14523
O 8.98923 0.884438 -7.09134
H 8.02359 0.913112 -6.93372
H 9.11807 -0.0927273 -7.03027
O -5.07348 -5.648 -8.79457
H -4.39564 -5.81373 -8.12011
H -4.57236 -5.86211 -9.61266
O -1.32418 9.52326 -5.97369
H -1.66831 8.77671 -6.52271
H -0.818982 -9.95594 -6.64774
O -4.08051 7.98309 -1.96443
H -3.64208 8.85373 -1.88277
H -5.01857 8.21871 -2.10893
O -3.42708 -9.18431 -4.74641
H -3.36716 -8.48285 -5.41839
H -2.67361 -9.74708 -5.02041
O 4.61484 3.15378 -0.567948
H 5.26489 3.83389 -0.300238
H 5.22761 2.39532 -0.639672
O 9.46123 -8.13362 0.566599
H 9.59499 -7.16394 0.642687
H 9.06532 -8.32308 1.44159
O -2.70755 -3.67821 -10.3578
H -1.76366 -3.76349 -10.6152
H -2.99275 -4.60049 -10.5123
O 2.28775 7.07273 6.43169
H 2.34154 7.58854 5.59426
H 3.20588 6.72393 6.4802
O -2.21028 7.37433 -7.30958
H -3.17684 7.25772 -7.23078
H -1.94007 6.44026 -7.36696
O 6.90706 -3.91149 8.7182
H 7.3904 -4.64725 8.30259
H 7.46885 -3.73894 9.50145
O 6.22026 6.79064 -12.0005
H 6.6138 6.28003 -11.2544
H 6.09151 6.0923 -12.6771
O -1.17224 -6.60145 -7.09826
H -2.12394 -6.81062 -6.97668
H -1.01753 -6.01549 -6.31907
O 0.768082 -5.45861 -8.6176
H 1.24287 -5.05728 -7.85951
H 0.0209107 -5.88858 -8.14604
O -2.15788 9.45483 1.56121
H -2.60724 9.658 2.40754
H -1.32818 9.96448 1.66744
O 0.990427 0.756186 4.99378
H 1.44767 -0.00413556 4.56793
H 0.166886 0.329188 5.29284
O 9.80334 -5.45909 0.976162
H 9.20847 -4.80591 1.40945
H -9.73121 -5.59316 1.69761
O 7.40551 9.51665 -0.345993
H 7.90393 9.46952 -1.18628
H 8.10238 9.16737 0.251907
O -5.36951 -1.0374 12.9128
H -4.58003 -1.60799 12.7917
H -5.56644 -1.18625 13.8532
O 0.401009 -7.23428 7.95638
H -0.375841 -7.71025 8.31235
H 0.981371 -7.99358 7.75075
O -1.06174 -2.10942 3.20798
H -1.73485 -2.82415 3.23713
H -0.259179 -2.63707 3.40912
O 8.43701 -2.51297 -16.2552
H 7.72971 -2.21759 -15.6693
H 9.01809 -3.00561 -15.6359
O 0.823532 -8.14183 -2.60003
H 0.479886 -9.0232 -2.35357
H 1.69746 -8.16784 -2.15641
O 3.13499 6.17714 15.1506
H 3.93496 6.61689 15.4923
H 3.54218 5.60134 14.4729
O -6.61284 5.7131 6.40219
H -6.06633 6.21519 7.04768
H -5.91591 5.21532 5.91483
O 5.39412 -5.72352 1.36591
H 5.74394 -5.32164 0.539599
H 5.79292 -6.61585 1.31197
O 7.96646 2.37235 14.6437
H 8.84635 2.70209 14.3583
H 7.68657 1.84866 13.86
O -5.51365 2.23545 -10.1269
H -5.19815 2.05258 -9.2198
H -6.46573 2.3793 -9.96873
O -3.82285 -2.25835 -1.53957
H -3.65284 -2.83998 -2.30925
H -3.53803 -2.87899 -0.83395
O 4.46253 6.55889 -16.0282
H 3.53228 6.86765 -15.9058
H 4.92492 7.39102 -15.7694
O -0.161497 9.15339 10.1616
H -0.404617 8.22796 9.9899
H 0.804625 9.08781 10.3162
O 2.35797 -1.37901 3.976
H 1.84724 -2.21744 3.9301
H 3.20466 -1.72175 4.33299
O -7.05434 2.01007 18.0592
H -6.17718 2.41797 18.1993
H -6.78393 1.06742 18.129
O 6.84801 3.01628 -3.01874
H 7.07041 2.20896 -3.51613
H 6.88724 2.65842 -2.10994
O 9.34443 4.69633 16.949
H 8.99806 3.90674 17.4204
H -9.93483 4.38588 16.7268
O -2.07485 -6.37517 5.03508
H -2.77405 -6.74587 5.61475
H -1.67383 -7.21238 4.71883
O -7.04188 -2.1181 2.16562
H -6.05967 -2.13899 2.14794
H -7.22277 -2.26038 1.21999
O 0.629886 7.05481 15.7401
H 1.52132 6.69359 15.5367
H 0.854057 8.00495 15.8274
O 1.68843 0.859862 -6.95516
H 0.78363 0.540831 -6.74346
H 2.19872 0.0506011 -6.74536
O -0.161165 -1.78113 18.3861
H 0.610309 -1.24052 18.6603
H 0.00153043 -1.78452 17.4181
O 9.71164 -8.06698 -11.338
H 8.92879 -7.74187 -10.8496
H 9.46356 -9.01061 -11.4509
O 3.02066 -6.54462 -9.74781
H 2.15833 -6.32934 -9.34192
H 3.2497 -5.67497 -10.1286
O 3.24071 2.50207 -5.33872
H 3.80182 1.79897 -4.96433
H 2.6188 1.96392 -5.87863
O -7.36129 -6.38234 8.06401
H -6.99299 -7.18148 8.4823
H -8.19415 -6.75108 7.70496
O -0.925826 3.18287 6.54734
H -1.32901 2.72234 5.78149
H -0.592407 3.99818 6.11742
O -9.87031 -6.15662 -2.71411
H 9.77175 -5.41905 -2.3766
H 9.68414 -6.90092 -2.62343
O -8.72303 -2.18604 -4.26461
H -8.60906 -1.30584 -4.68837
H -9.01552 -2.71375 -5.03665
O -5.98527 3.75638 -4.20605
H -5.1991 3.92274 -3.62754
H -6.00171 2.77342 -4.17437
O 4.80022 -6.10761 -4.4253
H 3.82743 -6.24222 -4.42123
H 4.85983 -5.17931 -4.12302
O -6.26944 1.03968 -3.87724
H -7.02319 0.72172 -4.4236
H -6.34312 0.464065 -3.08713
O -1.923 4.61739 -6.94665
H -2.14225 3.69829 -6.67403
H -1.60399 4.97125 -6.09228
O -7.49516 6.09406 -12.2947
H -6.90402 6.31495 -11.543
H -7.07143 6.66095 -12.9721
O -8.82217 -4.56133 17.0747
H -7.99889 -4.44705 16.5508
H -9.42452 -4.8756 16.3681
O -5.84191 4.7763 16.4167
H -5.25576 5.10639 17.1255
H -5.18637 4.5684 15.7199
O 9.52156 -7.57628 17.1714
H -9.8307 -8.07548 17.0389
H 9.76749 -7.04235 17.9543
O -6.25298 6.55448 -4.55351
H -6.33423 5.58585 -4.46024
H -5.26672 6.62456 -4.58152
O 5.71196 5.10818 -20.6586
H 5.35627 4.27042 -20.9725
H 5.0899 5.30771 -19.9172
O -3.71391 -6.15109 -11.1095
H -3.5053 -7.05434 -11.4352
H -4.22833 -5.78751 -11.8471
O 3.42363 9.08346 -2.28412
H 3.27284 -9.95 -2.0773
H 3.92671 8.83291 -1.48803
O -9.19518 -8.38671 -5.72431
H -8.37196 -8.67408 -6.17303
H -9.8156 -8.34677 -6.48243
O 5.21028 1.76452 -13.2233
H 4.49257 2.36285 -12.9629
H 5.4438 1.37072 -12.3557
O -9.82649 -3.51821 5.70906
H -9.04096 -4.09557 5.65012
H -9.89986 -3.40945 6.67986
O -1.2765 4.79661 -1.98115
H -0.881066 3.97228 -1.62209
H -0.705244 5.46212 -1.54498
O -8.19808 -8.67443 17.0872
H -7.40696 -8.30155 17.5341
H -8.29703 -9.54613 17.5231
O 7.0334 -7.84382 14.8824
H 6.95991 -8.15425 15.8034
H 7.85932 -8.29101 14.5967
O 3.97783 8.10836 -7.206
H 4.63704 7.5003 -6.81901
H 3.52016 8.4242 -6.40228
O 5.72522 7.0523 15.7954
H 6.51952 7.43872 15.3847
H 5.98314 6.09961 15.7511
O 5.82551 6.35324 -6.02869
H 6.15019 6.18874 -5.11746
H 6.67913 6.41611 -6.50548
O 7.10668 4.28726 5.23268
H 6.59333 4.62679 4.45795
H 6.39275 3.78268 5.67514
O -9.55038 -7.64668 6.98029
H -9.40431 -8.55429 7.32815
H -9.41614 -7.80051 6.0205
O 1.48116 2.05454 1.43646
H 0.829263 1.32236 1.52139
H 2.30423 1.55877 1.65634
O 3.9106 -0.292777 -2.0684
H 4.23771 -0.567373 -1.18299
H 3.32472 -1.05392 -2.27046
O 8.53943 -8.13212 -2.04281
H 8.80791 -8.18715 -1.09945
H 8.79698 -9.03089 -2.33845
O 9.80483 4.32252 -10.1882
H 9.30932 4.17743 -9.35759
H 9.80687 5.29686 -10.2576
O -0.420222 7.31163 13.1855
H 0.269174 6.83324 12.6748
H -0.179589 7.06762 14.1053
O 7.27874 -1.91567 -18.8664
H 7.49081 -0.981413 -18.6571
H 7.64704 -2.33965 -18.0714
O 1.63496 9.61039 15.7967
H 2.48681 9.5958 15.3098
H 1.91291 9.82543 16.7021
O 6.80978 5.67055 -3.54526
H 6.17696 5.92352 -2.84119
H 6.81756 4.68864 -3.42978
O -7.13039 -9.98018 3.85576
H -6.83931 9.81226 2.93957
H -7.17274 9.07828 4.19407
O -7.15242 -2.91809 -0.575867
H -7.01828 -3.73583 -0.0473967
H -6.79264 -3.21081 -1.4492
O -8.46021 -9.82449 -3.50778
H -7.58757 -9.37417 -3.48607
H -8.87775 -9.3423 -4.25376
O 0.1357 -5.14386 9.74742
H 0.206903 -5.77242 8.99998
H 0.441605 -5.70683 10.4819
O 8.98549 9.24721 -11.169
H 9.59972 8.49228 -11.2591
H 8.73263 9.12399 -10.2291
O -8.90885 8.6795 -17.5203
H -8.01095 9.00708 -17.3051
H -8.89939 7.82478 -17.0537
O 0.122372 2.64304 -1.00993
H 1.01906 2.54384 -1.40573
H 0.335405 2.59657 -0.0606567
O -9.51815 1.11904 -13.2243
H -8.95081 1.8535 -12.9204
H 9.80195 1.55939 -13.1922
O 3.22613 3.865 -12.4842
H 3.21226 4.58611 -11.8323
H 2.28587 3.5956 -12.5079
O 0.107224 2.23499 18.3296
H 0.0942914 1.89826 17.4043
H 0.804649 2.91859 18.2747
O -5.60977 -5.8922 -5.26432
H -6.59165 -5.86196 -5.2229
H -5.40071 -6.05413 -4.32189
O -1.88796 1.01398 14.2704
H -1.17288 1.21825 14.9107
H -2.62921 0.835691 14.8899
O -2.16681 5.6913 11.8096
H -1.95849 5.00496 12.4736
H -1.79218 6.45787 12.2894
O 9.92203 -8.43626 -17.9845
H -9.3074 -8.32658 -17.8248
H 9.56781 -7.63937 -17.5719
O -8.03865 -8.61731 -0.00503224
H -7.61127 -9.36202 0.447671
H -8.98113 -8.71744 0.229546
O 8.00864 0.360958 4.40333
H 8.30421 0.036475 5.2783
H 8.46955 1.22795 4.36475
O 2.2636 7.71767 18.3509
H 1.78679 8.5485 18.5744
H 1.57798 7.05605 18.5274
O -6.65592 -6.79132 11.33
H -6.37987 -7.22722 12.1681
H -6.91468 -7.55662 10.7868
O -5.05512 -6.41763 -2.58167
H -4.51641 -6.79135 -1.84521
H -5.9058 -6.24517 -2.11351
O -4.25633 -4.13879 -21.5344
H -3.80779 -4.87319 -21.9824
H -4.62052 -4.62293 -20.7636
O 7.02779 1.72234 -0.586389
H 7.8338 1.18566 -0.724483
H 7.15148 2.00486 0.345388
O 1.03364 8.50426 -11.1863
H 1.80735 8.90232 -10.7357
H 1.1 7.5946 -10.827
O 6.81071 -2.23693 6.51065
H 6.75206 -2.68141 7.38277
H 7.49654 -1.56007 6.68278
O 6.53089 -7.23733 8.84531
H 7.2791 -6.85188 8.34902
H 6.92127 -8.10835 9.10312
O 5.28908 -7.99757 5.07522
H 5.51959 -8.70365 5.7208
H 6.12997 -7.49092 5.06524
O -3.44128 -9.65479 3.86109
H -3.79426 -9.9648 4.71668
H -2.56984 -9.30797 4.15429
O -9.46888 7.24337 8.58408
H -9.04444 6.3802 8.43377
H -9.60539 7.20342 9.55366
O -8.49443 -2.07002 18.1411
H -8.50794 -1.74032 17.2195
H -8.48824 -3.03585 17.9722
O -6.14662 -9.92722 19.4715
H -6.8267 9.71615 20.0629
H -6.00094 9.2703 18.8961
O -6.34319 -0.478517 -12.566
H -6.59341 -0.632742 -11.6315
H -7.16093 -0.790897 -12.9912
O 8.97301 -4.2083 -1.33716
H 9.53525 -3.40104 -1.36049
H 9.31815 -4.64062 -0.524519
O 2.4547 -2.5379 -2.60572
H 1.91529 -2.68164 -3.40821
H 3.25458 -3.06905 -2.80387
O 2.44132 9.49978 1.47372
H 3.03336 9.10887 0.809269
H 3.06278 -9.89149 1.94805
O -1.62662 7.87809 -11.3415
H -0.71706 8.21631 -11.1903
H -1.38624 7.00155 -11.7328
O -7.4516 3.49267 12.6317
H -6.93624 2.66514 12.6665
H -7.31971 3.71298 11.6895
O -0.569345 9.74323 6.84948
H 0.380617 9.71563 7.08939
H -0.794653 8.79404 6.73652
O 4.14433 3.50065 16.337
H 4.98215 3.88275 16.6674
H 4.07028 2.71879 16.9191
O -3.92829 -8.33104 15.5653
H -3.81187 -9.27239 15.8285
H -3.86961 -7.88229 16.4232
O 1.62817 4.65719 -7.72512
H 1.41839 4.81124 -6.78486
H 2.60588 4.59271 -7.66612
O -8.40937 0.27143 -5.43661
H -8.39498 0.35282 -6.41469
H -9.19963 0.787281 -5.20216
O -3.88329 -7.71184 6.60438
H -3.84529 -8.68638 6.70161
H -4.73274 -7.64696 6.10407
O -5.49619 6.75763 8.72027
H -5.06166 6.01857 9.20182
H -4.75524 7.39958 8.70691
O -6.45893 3.44901 10.0493
H -5.59725 3.92495 10.0571
H -6.18883 2.57374 10.3904
O 9.45641 0.319036 -0.753949
H 9.4725 0.215637 0.220727
H 9.82572 -0.544257 -1.03716
O -0.643574 -4.95203 -5.01496
H -0.690952 -5.26023 -4.08929
H -0.243353 -4.07145 -4.91124
O -8.91522 9.85934 7.93616
H -8.86796 8.91333 8.19679
H -8.1447 -9.75487 8.41154
O 7.17236 2.6879 1.98338
H 7.94215 2.68835 2.58623
H 6.45992 2.45869 2.61616
O 8.71062 -4.00818 10.8449
H 8.95865 -3.70833 11.7462
H 8.12884 -4.76074 11.0842
O 4.69073 -1.26293 0.376901
H 4.50907 -2.05522 0.926849
H 5.66162 -1.3602 0.269629
O -9.34333 5.16178 5.90561
H -8.43911 5.44817 5.69125
H -9.17089 4.66714 6.72214
O -9.76209 -0.787613 -17.0409
H 9.8453 -0.166345 -17.5235
H 9.72368 -1.39227 -16.7212
O 4.24528 -4.5806 9.13692
H 4.2423 -5.31965 9.77975
H 5.20124 -4.36509 9.07679
O -4.31693 -2.35801 2.14824
H -3.91704 -2.84995 2.89327
H -3.83785 -2.78035 1.40904
O -9.06163 8.80129 17.9913
H -9.43595 8.067 18.5269
H -8.59085 8.28163 17.3055
O 8.56764 7.93735 -19.7261
H 8.63847 6.97074 -19.5939
H 7.96273 7.94579 -20.5003
O -8.21281 -3.10929 -16.7215
H -8.70288 -2.30989 -17.0036
H -8.74118 -3.36018 -15.9337
O -0.972244 -8.80865 4.59746
H -0.0411536 -8.62575 4.34636
H -0.834637 -9.33999 5.41521
O -7.57211 -5.17434 5.45863
H -7.09657 -4.31931 5.31686
H -7.23492 -5.44269 6.33671
O 9.78581 6.59496 18.8982
H 9.81605 5.84115 18.2856
H 8.82679 6.77718 18.8866