LAMMPS data file via write_data, version 29 Sep 2021, timestep = 2185

1835 atoms
15 atom types
1040 bonds
12 bond types
552 angles
23 angle types
62 dihedrals
20 dihedral types
4 impropers
3 improper types

-10.094 10.094 xlo xhi
-9.99 9.9900035802 ylo yhi
-36.864073260000005 20.737 zlo zhi

Masses

1 1.008
2 1.008
3 1.008
4 1.008
5 12.011
6 12.011
7 12.011
8 12.011
9 14.007
10 14.007
11 15.999
12 15.999
13 22.99
14 35.45
15 197

PairIJ Coeffs # lj/charmmfsw/coul/long

1 1 0.034 2.38761 0.034 2.38761
1 2 0.0273496 2.36979 0.0273496 2.36979
1 3 0.0395474 1.39381 0.0395474 1.39381
1 4 0.0395474 1.39381 0.0395474 1.39381
1 5 0.0611555 2.9756 0.0611555 2.9756
1 6 0.0487852 2.9756 0.0487852 2.9756
1 7 0.0329848 2.9756 0.0184391 2.88651
1 8 0.0436348 2.98451 0.0184391 2.88651
1 9 0.0824621 2.84197 0.0824621 2.84197
1 10 0.0824621 2.84197 0.0824621 2.84197
1 11 0.0638749 2.70833 0.0638749 2.70833
1 12 0.0719124 2.76909 0.0719124 2.76909
1 13 0.0399324 2.45064 0.0399324 2.45064
1 14 0.0714143 3.21614 0.0714143 3.21614
1 15 0.424099 2.5083 0.424099 2.5083
2 2 0.022 2.35197 0.022 2.35197
2 3 0.0318119 1.37599 0.0318119 1.37599
2 4 0.0318119 1.37599 0.0318119 1.37599
2 5 0.0491935 2.95778 0.0491935 2.95778
2 6 0.0392428 2.95778 0.0392428 2.95778
2 7 0.026533 2.95778 0.0148324 2.86869
2 8 0.0350999 2.96669 0.0148324 2.86869
2 9 0.0663325 2.82415 0.0663325 2.82415
2 10 0.0663325 2.82415 0.0663325 2.82415
2 11 0.0513809 2.69051 0.0513809 2.69051
2 12 0.0578463 2.75127 0.0578463 2.75127
2 13 0.0321216 2.43282 0.0321216 2.43282
2 14 0.0574456 3.19833 0.0574456 3.19833
2 15 0.341145 2.49049 0.341145 2.49049
3 3 0.046 0.400014 0.046 0.400014
3 4 0.046 0.400014 0.046 0.400014
3 5 0.0711337 1.9818 0.0711337 1.9818
3 6 0.056745 1.9818 0.056745 1.9818
3 7 0.0383667 1.9818 0.0214476 1.89271
3 8 0.0507543 1.99071 0.0214476 1.89271
3 9 0.0959166 1.84817 0.0959166 1.84817
3 10 0.0959166 1.84817 0.0959166 1.84817
3 11 0.0742967 1.71453 0.0742967 1.71453
3 12 0.0836457 1.77529 0.0836457 1.77529
3 13 0.0464478 1.45684 0.0464478 1.45684
3 14 0.0830662 2.22235 0.0830662 2.22235
3 15 0.493295 1.51451 0.493295 1.51451
4 4 0.046 0.400014 0.046 0.400014
4 5 0.0711337 1.9818 0.0711337 1.9818
4 6 0.056745 1.9818 0.056745 1.9818
4 7 0.0383667 1.9818 0.0214476 1.89271
4 8 0.0507543 1.99071 0.0214476 1.89271
4 9 0.0959166 1.84817 0.0959166 1.84817
4 10 0.0959166 1.84817 0.0959166 1.84817
4 11 0.0742967 1.71453 0.0742967 1.71453
4 12 0.0836457 1.77529 0.0836457 1.77529
4 13 0.0464478 1.45684 0.0464478 1.45684
4 14 0.0830662 2.22235 0.0830662 2.22235
4 15 0.493295 1.51451 0.493295 1.51451
5 5 0.11 3.56359 0.11 3.56359
5 6 0.0877496 3.56359 0.0877496 3.56359
5 7 0.0593296 3.56359 0.0331662 3.47451
5 8 0.0784857 3.5725 0.0331662 3.47451
5 9 0.148324 3.42996 0.148324 3.42996
5 10 0.148324 3.42996 0.148324 3.42996
5 11 0.114891 3.29633 0.114891 3.29633
5 12 0.129348 3.35708 0.129348 3.35708
5 13 0.0718262 3.03863 0.0718262 3.03863
5 14 0.128452 3.80414 0.128452 3.80414
5 15 0.762824 3.0963 0.762824 3.0963
6 6 0.07 3.56359 0.07 3.56359
6 7 0.0473286 3.56359 0.0264575 3.47451
6 8 0.0626099 3.5725 0.0264575 3.47451
6 9 0.118322 3.42996 0.118322 3.42996
6 10 0.118322 3.42996 0.118322 3.42996
6 11 0.0916515 3.29633 0.0916515 3.29633
6 12 0.103184 3.35708 0.103184 3.35708
6 13 0.0572975 3.03863 0.0572975 3.03863
6 14 0.10247 3.80414 0.10247 3.80414
6 15 0.608523 3.0963 0.608523 3.0963
7 7 0.032 3.56359 0.01 3.38542
7 8 0.042332 3.5725 0.01 3.38542
7 9 0.08 3.42996 0.0447214 3.34087
7 10 0.08 3.42996 0.0447214 3.34087
7 11 0.0619677 3.29633 0.034641 3.20724
7 12 0.0697653 3.35708 0.039 3.26799
7 13 0.0387402 3.03863 0.0216564 2.94954
7 14 0.069282 3.80414 0.0387298 3.71505
7 15 0.411437 3.0963 0.23 3.00721
8 8 0.056 3.58141 0.01 3.38542
8 9 0.10583 3.43887 0.0447214 3.34087
8 10 0.10583 3.43887 0.0447214 3.34087
8 11 0.0819756 3.30523 0.034641 3.20724
8 12 0.0922908 3.36599 0.039 3.26799
8 13 0.0512484 3.04754 0.0216564 2.94954
8 14 0.0916515 3.81305 0.0387298 3.71505
8 15 0.544279 3.10521 0.23 3.00721
9 9 0.2 3.29633 0.2 3.29633
9 10 0.2 3.29633 0.2 3.29633
9 11 0.154919 3.2402 0.154919 3.2402
9 12 0.174413 3.22345 0.174413 3.22345
9 13 0.0968504 2.905 0.0968504 2.905
9 14 0.173205 3.6705 0.173205 3.6705
9 15 1.02859 2.96266 1.02859 2.96266
10 10 0.2 3.29633 0.2 3.29633
10 11 0.154919 3.16269 0.154919 3.16269
10 12 0.174413 3.22345 0.174413 3.22345
10 13 0.0968504 2.905 0.0968504 2.905
10 14 0.173205 3.6705 0.173205 3.6705
10 15 1.02859 2.96266 1.02859 2.96266
11 11 0.12 3.02906 0.12 3.02906
11 12 0.1351 3.08981 0.1351 3.08981
11 13 0.07502 2.8776 0.07502 2.8776
11 14 0.134164 3.53687 0.134164 3.53687
11 15 0.796743 2.82903 0.796743 2.82903
12 12 0.1521 3.15057 0.1521 3.15057
12 13 0.08446 2.83212 0.08446 2.83212
12 14 0.151046 3.59763 0.151046 3.59763
12 15 0.897 2.88979 0.897 2.88979
13 13 0.0469 2.51367 0.0469 2.51367
13 14 0.0839 3.32394 0.0839 3.32394
13 15 0.498097 2.57134 0.498097 2.57134
14 14 0.15 4.04468 0.15 4.04468
14 15 0.890786 3.33684 0.890786 3.33684
15 15 5.29 2.629 5.29 2.629

Bond Coeffs # harmonic

1 200 1.522
2 222.5 1.538
3 222.5 1.53
4 309 1.111
5 330 1.08
6 450 0.9572
7 450 1.365
8 390 1.49
9 455 1
10 200 1.48
11 403 1.04
12 525 1.26

Angle Coeffs # charmm

1 52 108 0 0
2 58.35 113.5 11.16 2.561
3 58.35 113.6 11.16 2.561
4 62.3 120 0 0
5 26.5 110.1 22.53 2.179
6 26.5 110.1 22.53 2.179
7 35.5 109 5.4 1.802
8 50 109.5 0 0
9 35 111 0 0
10 49 120 0 0
11 40.4 120 0 0
12 25 120 0 0
13 30 109.5 20 2.074
14 44 109.5 0 0
15 55 104.52 0 0
16 40 120 70 2.31
17 67.7 107.5 0 0
18 56.5 107.5 0 0
19 43.7 110 0 0
20 67.7 110 0 0
21 51.5 107.5 0 0
22 40 118 50 2.388
23 100 124 70 2.225

Dihedral Coeffs # charmmfsw

1 0.63 1 180 1
2 0.01 2 0 0
3 0.15 3 0 0
4 0.19 3 0 1
5 0.19 3 0 1
6 0.19 3 0 1
7 0 6 180 1
8 0 6 180 1
9 2.25 2 180 1
10 0.19 3 0 1
11 0.19 3 0 1
12 0 6 180 1
13 0 6 180 1
14 0.2 3 0 1
15 0.2 3 0 1
16 2.25 2 180 1
17 3.2 2 180 1
18 0.05 6 180 1
19 0.2 3 0 1
20 0.1 3 0 1

Improper Coeffs # harmonic

1 0 0
2 45 0
3 96 0

Atoms # full

1552 0 15 0 -8.1564 -8.1564 -36.72384567362473 0 0 0
1553 0 15 0 -6.1173 -6.1173 -36.72384567362473 0 0 0
1554 0 15 0 -6.1173 -8.1564 -34.684745673624725 0 0 0
1555 0 15 0 -8.1564 -6.1173 -34.684745673624725 0 0 0
1556 0 15 0 -4.0782 -8.1564 -36.72384567362473 0 0 0
1557 0 15 0 -2.0391 -6.1173 -36.72384567362473 0 0 0
1558 0 15 0 -2.0391 -8.1564 -34.684745673624725 0 0 0
1559 0 15 0 -4.0782 -6.1173 -34.684745673624725 0 0 0
1570 0 15 0 -8.1564 -4.0782 -36.72384567362473 0 0 0
1571 0 15 0 -6.1173 -2.0391 -36.72384567362473 0 0 0
1572 0 15 0 -6.1173 -4.0782 -34.684745673624725 0 0 0
1573 0 15 0 -8.1564 -2.0391 -34.684745673624725 0 0 0
1574 0 15 0 -4.0782 -4.0782 -36.72384567362473 0 0 0
1575 0 15 0 -2.0391 -2.0391 -36.72384567362473 0 0 0
1576 0 15 0 -2.0391 -4.0782 -34.684745673624725 0 0 0
1577 0 15 0 -4.0782 -2.0391 -34.684745673624725 0 0 0
1588 0 15 0 -8.1564 0 -36.72384567362473 0 0 0
1590 0 15 0 -6.1173 0 -34.684745673624725 0 0 0
1592 0 15 0 -4.0782 0 -36.72384567362473 0 0 0
1594 0 15 0 -2.0391 0 -34.684745673624725 0 0 0
1633 0 15 0 -8.1564 -8.1564 -32.64564567362473 0 0 0
1634 0 15 0 -6.1173 -6.1173 -32.64564567362473 0 0 0
1635 0 15 0 -6.1173 -8.1564 -30.60654567362468 0 0 0
1636 0 15 0 -8.1564 -6.1173 -30.60654567362468 0 0 0
1637 0 15 0 -4.0782 -8.1564 -32.64564567362473 0 0 0
1638 0 15 0 -2.0391 -6.1173 -32.64564567362473 0 0 0
1639 0 15 0 -2.0391 -8.1564 -30.60654567362468 0 0 0
1640 0 15 0 -4.0782 -6.1173 -30.60654567362468 0 0 0
1651 0 15 0 -8.1564 -4.0782 -32.64564567362473 0 0 0
1652 0 15 0 -6.1173 -2.0391 -32.64564567362473 0 0 0
1653 0 15 0 -6.1173 -4.0782 -30.60654567362468 0 0 0
1654 0 15 0 -8.1564 -2.0391 -30.60654567362468 0 0 0
1655 0 15 0 -4.0782 -4.0782 -32.64564567362473 0 0 0
1656 0 15 0 -2.0391 -2.0391 -32.64564567362473 0 0 0
1657 0 15 0 -2.0391 -4.0782 -30.60654567362468 0 0 0
1658 0 15 0 -4.0782 -2.0391 -30.60654567362468 0 0 0
1669 0 15 0 -8.1564 0 -32.64564567362473 0 0 0
1671 0 15 0 -6.1173 0 -30.60654567362468 0 0 0
1673 0 15 0 -4.0782 0 -32.64564567362473 0 0 0
1675 0 15 0 -2.0391 0 -30.60654567362468 0 0 0
1560 0 15 0 0 -8.1564 -36.72384567362473 0 0 0
1561 0 15 0 2.0391 -6.1173 -36.72384567362473 0 0 0
1562 0 15 0 2.0391 -8.1564 -34.684745673624725 0 0 0
1563 0 15 0 0 -6.1173 -34.684745673624725 0 0 0
1564 0 15 0 4.0782 -8.1564 -36.72384567362473 0 0 0
1565 0 15 0 6.1173 -6.1173 -36.72384567362473 0 0 0
1566 0 15 0 6.1173 -8.1564 -34.684745673624725 0 0 0
1567 0 15 0 4.0782 -6.1173 -34.684745673624725 0 0 0
1568 0 15 0 8.1564 -8.1564 -36.72384567362473 0 0 0
1569 0 15 0 8.1564 -6.1173 -34.684745673624725 0 0 0
1578 0 15 0 0 -4.0782 -36.72384567362473 0 0 0
1579 0 15 0 2.0391 -2.0391 -36.72384567362473 0 0 0
1580 0 15 0 2.0391 -4.0782 -34.684745673624725 0 0 0
1581 0 15 0 0 -2.0391 -34.684745673624725 0 0 0
1582 0 15 0 4.0782 -4.0782 -36.72384567362473 0 0 0
1583 0 15 0 6.1173 -2.0391 -36.72384567362473 0 0 0
1584 0 15 0 6.1173 -4.0782 -34.684745673624725 0 0 0
1585 0 15 0 4.0782 -2.0391 -34.684745673624725 0 0 0
1586 0 15 0 8.1564 -4.0782 -36.72384567362473 0 0 0
1587 0 15 0 8.1564 -2.0391 -34.684745673624725 0 0 0
1596 0 15 0 0 0 -36.72384567362473 0 0 0
1598 0 15 0 2.0391 0 -34.684745673624725 0 0 0
1600 0 15 0 4.0782 0 -36.72384567362473 0 0 0
1602 0 15 0 6.1173 0 -34.684745673624725 0 0 0
1604 0 15 0 8.1564 0 -36.72384567362473 0 0 0
1641 0 15 0 0 -8.1564 -32.64564567362473 0 0 0
1642 0 15 0 2.0391 -6.1173 -32.64564567362473 0 0 0
1643 0 15 0 2.0391 -8.1564 -30.60654567362468 0 0 0
1644 0 15 0 0 -6.1173 -30.60654567362468 0 0 0
1645 0 15 0 4.0782 -8.1564 -32.64564567362473 0 0 0
1646 0 15 0 6.1173 -6.1173 -32.64564567362473 0 0 0
1647 0 15 0 6.1173 -8.1564 -30.60654567362468 0 0 0
1648 0 15 0 4.0782 -6.1173 -30.60654567362468 0 0 0
1649 0 15 0 8.1564 -8.1564 -32.64564567362473 0 0 0
1650 0 15 0 8.1564 -6.1173 -30.60654567362468 0 0 0
1659 0 15 0 0 -4.0782 -32.64564567362473 0 0 0
1660 0 15 0 2.0391 -2.0391 -32.64564567362473 0 0 0
1661 0 15 0 2.0391 -4.0782 -30.60654567362468 0 0 0
1662 0 15 0 0 -2.0391 -30.60654567362468 0 0 0
1663 0 15 0 4.0782 -4.0782 -32.64564567362473 0 0 0
1664 0 15 0 6.1173 -2.0391 -32.64564567362473 0 0 0
1665 0 15 0 6.1173 -4.0782 -30.60654567362468 0 0 0
1666 0 15 0 4.0782 -2.0391 -30.60654567362468 0 0 0
1667 0 15 0 8.1564 -4.0782 -32.64564567362473 0 0 0
1668 0 15 0 8.1564 -2.0391 -30.60654567362468 0 0 0
1677 0 15 0 0 0 -32.64564567362473 0 0 0
1679 0 15 0 2.0391 0 -30.60654567362468 0 0 0
1681 0 15 0 4.0782 0 -32.64564567362473 0 0 0
1683 0 15 0 6.1173 0 -30.60654567362468 0 0 0
1685 0 15 0 8.1564 0 -32.64564567362473 0 0 0
1589 0 15 0 -6.1173 2.0391 -36.72384567362473 0 0 0
1591 0 15 0 -8.1564 2.0391 -34.684745673624725 0 0 0
1593 0 15 0 -2.0391 2.0391 -36.72384567362473 0 0 0
1595 0 15 0 -4.0782 2.0391 -34.684745673624725 0 0 0
1606 0 15 0 -8.1564 4.0782 -36.72384567362473 0 0 0
1607 0 15 0 -6.1173 6.1173 -36.72384567362473 0 0 0
1608 0 15 0 -6.1173 4.0782 -34.684745673624725 0 0 0
1609 0 15 0 -8.1564 6.1173 -34.684745673624725 0 0 0
1610 0 15 0 -4.0782 4.0782 -36.72384567362473 0 0 0
1611 0 15 0 -2.0391 6.1173 -36.72384567362473 0 0 0
1612 0 15 0 -2.0391 4.0782 -34.684745673624725 0 0 0
1613 0 15 0 -4.0782 6.1173 -34.684745673624725 0 0 0
1624 0 15 0 -8.1564 8.1564 -36.72384567362473 0 0 0
1625 0 15 0 -6.1173 8.1564 -34.684745673624725 0 0 0
1626 0 15 0 -4.0782 8.1564 -36.72384567362473 0 0 0
1627 0 15 0 -2.0391 8.1564 -34.684745673624725 0 0 0
1670 0 15 0 -6.1173 2.0391 -32.64564567362473 0 0 0
1672 0 15 0 -8.1564 2.0391 -30.60654567362468 0 0 0
1674 0 15 0 -2.0391 2.0391 -32.64564567362473 0 0 0
1676 0 15 0 -4.0782 2.0391 -30.60654567362468 0 0 0
1687 0 15 0 -8.1564 4.0782 -32.64564567362473 0 0 0
1688 0 15 0 -6.1173 6.1173 -32.64564567362473 0 0 0
1689 0 15 0 -6.1173 4.0782 -30.60654567362468 0 0 0
1690 0 15 0 -8.1564 6.1173 -30.60654567362468 0 0 0
1691 0 15 0 -4.0782 4.0782 -32.64564567362473 0 0 0
1692 0 15 0 -2.0391 6.1173 -32.64564567362473 0 0 0
1693 0 15 0 -2.0391 4.0782 -30.60654567362468 0 0 0
1694 0 15 0 -4.0782 6.1173 -30.60654567362468 0 0 0
1705 0 15 0 -8.1564 8.1564 -32.64564567362473 0 0 0
1706 0 15 0 -6.1173 8.1564 -30.60654567362468 0 0 0
1707 0 15 0 -4.0782 8.1564 -32.64564567362473 0 0 0
1708 0 15 0 -2.0391 8.1564 -30.60654567362468 0 0 0
1597 0 15 0 2.0391 2.0391 -36.72384567362473 0 0 0
1599 0 15 0 0 2.0391 -34.684745673624725 0 0 0
1601 0 15 0 6.1173 2.0391 -36.72384567362473 0 0 0
1603 0 15 0 4.0782 2.0391 -34.684745673624725 0 0 0
1605 0 15 0 8.1564 2.0391 -34.684745673624725 0 0 0
1614 0 15 0 0 4.0782 -36.72384567362473 0 0 0
1615 0 15 0 2.0391 6.1173 -36.72384567362473 0 0 0
1616 0 15 0 2.0391 4.0782 -34.684745673624725 0 0 0
1617 0 15 0 0 6.1173 -34.684745673624725 0 0 0
1618 0 15 0 4.0782 4.0782 -36.72384567362473 0 0 0
1619 0 15 0 6.1173 6.1173 -36.72384567362473 0 0 0
1620 0 15 0 6.1173 4.0782 -34.684745673624725 0 0 0
1621 0 15 0 4.0782 6.1173 -34.684745673624725 0 0 0
1622 0 15 0 8.1564 4.0782 -36.72384567362473 0 0 0
1623 0 15 0 8.1564 6.1173 -34.684745673624725 0 0 0
1628 0 15 0 0 8.1564 -36.72384567362473 0 0 0
1629 0 15 0 2.0391 8.1564 -34.684745673624725 0 0 0
1630 0 15 0 4.0782 8.1564 -36.72384567362473 0 0 0
1631 0 15 0 6.1173 8.1564 -34.684745673624725 0 0 0
1632 0 15 0 8.1564 8.1564 -36.72384567362473 0 0 0
1678 0 15 0 2.0391 2.0391 -32.64564567362473 0 0 0
1680 0 15 0 0 2.0391 -30.60654567362468 0 0 0
1682 0 15 0 6.1173 2.0391 -32.64564567362473 0 0 0
1684 0 15 0 4.0782 2.0391 -30.60654567362468 0 0 0
1686 0 15 0 8.1564 2.0391 -30.60654567362468 0 0 0
1695 0 15 0 0 4.0782 -32.64564567362473 0 0 0
1696 0 15 0 2.0391 6.1173 -32.64564567362473 0 0 0
1697 0 15 0 2.0391 4.0782 -30.60654567362468 0 0 0
1698 0 15 0 0 6.1173 -30.60654567362468 0 0 0
1699 0 15 0 4.0782 4.0782 -32.64564567362473 0 0 0
1700 0 15 0 6.1173 6.1173 -32.64564567362473 0 0 0
1701 0 15 0 6.1173 4.0782 -30.60654567362468 0 0 0
1702 0 15 0 4.0782 6.1173 -30.60654567362468 0 0 0
1703 0 15 0 8.1564 4.0782 -32.64564567362473 0 0 0
1704 0 15 0 8.1564 6.1173 -30.60654567362468 0 0 0
1709 0 15 0 0 8.1564 -32.64564567362473 0 0 0
1710 0 15 0 2.0391 8.1564 -30.60654567362468 0 0 0
1711 0 15 0 4.0782 8.1564 -32.64564567362473 0 0 0
1712 0 15 0 6.1173 8.1564 -30.60654567362468 0 0 0
1713 0 15 0 8.1564 8.1564 -32.64564567362473 0 0 0
1714 0 15 0 -8.1564 -8.1564 -28.567445673624682 0 0 0
1715 0 15 0 -6.1173 -6.1173 -28.567445673624682 0 0 0
1716 0 15 0 -6.1173 -8.1564 -26.52834567362468 0 0 0
1717 0 15 0 -8.1564 -6.1173 -26.52834567362468 0 0 0
1718 0 15 0 -4.0782 -8.1564 -28.567445673624682 0 0 0
1719 0 15 0 -2.0391 -6.1173 -28.567445673624682 0 0 0
1720 0 15 0 -2.0391 -8.1564 -26.52834567362468 0 0 0
1721 0 15 0 -4.0782 -6.1173 -26.52834567362468 0 0 0
1732 0 15 0 -8.1564 -4.0782 -28.567445673624682 0 0 0
1733 0 15 0 -6.1173 -2.0391 -28.567445673624682 0 0 0
1734 0 15 0 -6.1173 -4.0782 -26.52834567362468 0 0 0
1735 0 15 0 -8.1564 -2.0391 -26.52834567362468 0 0 0
1736 0 15 0 -4.0782 -4.0782 -28.567445673624682 0 0 0
1737 0 15 0 -2.0391 -2.0391 -28.567445673624682 0 0 0
1738 0 15 0 -2.0391 -4.0782 -26.52834567362468 0 0 0
1739 0 15 0 -4.0782 -2.0391 -26.52834567362468 0 0 0
1750 0 15 0 -8.1564 0 -28.567445673624682 0 0 0
1752 0 15 0 -6.1173 0 -26.52834567362468 0 0 0
1754 0 15 0 -4.0782 0 -28.567445673624682 0 0 0
1756 0 15 0 -2.0391 0 -26.52834567362468 0 0 0
1795 0 15 0 -8.1564 -8.1564 -24.489245673624684 0 0 0
1796 0 15 0 -6.1173 -6.1173 -24.489245673624684 0 0 0
1797 0 15 0 -4.0782 -8.1564 -24.489245673624684 0 0 0
1798 0 15 0 -2.0391 -6.1173 -24.489245673624684 0 0 0
1804 0 15 0 -8.1564 -4.0782 -24.489245673624684 0 0 0
1805 0 15 0 -6.1173 -2.0391 -24.489245673624684 0 0 0
1806 0 15 0 -4.0782 -4.0782 -24.489245673624684 0 0 0
1807 0 15 0 -2.0391 -2.0391 -24.489245673624684 0 0 0
1813 0 15 0 -8.1564 0 -24.489245673624684 0 0 0
1815 0 15 0 -4.0782 0 -24.489245673624684 0 0 0
1145 372 4 0.417 -0.3475021553490669 -6.617870254474716 -22.9529681754065 0 0 0
1722 0 15 0 0 -8.1564 -28.567445673624682 0 0 0
1723 0 15 0 2.0391 -6.1173 -28.567445673624682 0 0 0
1724 0 15 0 2.0391 -8.1564 -26.52834567362468 0 0 0
1725 0 15 0 0 -6.1173 -26.52834567362468 0 0 0
1726 0 15 0 4.0782 -8.1564 -28.567445673624682 0 0 0
1727 0 15 0 6.1173 -6.1173 -28.567445673624682 0 0 0
1728 0 15 0 6.1173 -8.1564 -26.52834567362468 0 0 0
1729 0 15 0 4.0782 -6.1173 -26.52834567362468 0 0 0
1730 0 15 0 8.1564 -8.1564 -28.567445673624682 0 0 0
1731 0 15 0 8.1564 -6.1173 -26.52834567362468 0 0 0
1740 0 15 0 0 -4.0782 -28.567445673624682 0 0 0
1741 0 15 0 2.0391 -2.0391 -28.567445673624682 0 0 0
1742 0 15 0 2.0391 -4.0782 -26.52834567362468 0 0 0
1743 0 15 0 0 -2.0391 -26.52834567362468 0 0 0
1744 0 15 0 4.0782 -4.0782 -28.567445673624682 0 0 0
1745 0 15 0 6.1173 -2.0391 -28.567445673624682 0 0 0
1746 0 15 0 6.1173 -4.0782 -26.52834567362468 0 0 0
1747 0 15 0 4.0782 -2.0391 -26.52834567362468 0 0 0
1748 0 15 0 8.1564 -4.0782 -28.567445673624682 0 0 0
1749 0 15 0 8.1564 -2.0391 -26.52834567362468 0 0 0
1758 0 15 0 0 0 -28.567445673624682 0 0 0
1760 0 15 0 2.0391 0 -26.52834567362468 0 0 0
1762 0 15 0 4.0782 0 -28.567445673624682 0 0 0
1764 0 15 0 6.1173 0 -26.52834567362468 0 0 0
1766 0 15 0 8.1564 0 -28.567445673624682 0 0 0
1799 0 15 0 0 -8.1564 -24.489245673624684 0 0 0
1800 0 15 0 2.0391 -6.1173 -24.489245673624684 0 0 0
1801 0 15 0 4.0782 -8.1564 -24.489245673624684 0 0 0
1802 0 15 0 6.1173 -6.1173 -24.489245673624684 0 0 0
1803 0 15 0 8.1564 -8.1564 -24.489245673624684 0 0 0
1808 0 15 0 0 -4.0782 -24.489245673624684 0 0 0
1809 0 15 0 2.0391 -2.0391 -24.489245673624684 0 0 0
1810 0 15 0 4.0782 -4.0782 -24.489245673624684 0 0 0
1811 0 15 0 6.1173 -2.0391 -24.489245673624684 0 0 0
1812 0 15 0 8.1564 -4.0782 -24.489245673624684 0 0 0
1817 0 15 0 0 0 -24.489245673624684 0 0 0
1819 0 15 0 4.0782 0 -24.489245673624684 0 0 0
1821 0 15 0 8.1564 0 -24.489245673624684 0 0 0
1751 0 15 0 -6.1173 2.0391 -28.567445673624682 0 0 0
1753 0 15 0 -8.1564 2.0391 -26.52834567362468 0 0 0
1755 0 15 0 -2.0391 2.0391 -28.567445673624682 0 0 0
1757 0 15 0 -4.0782 2.0391 -26.52834567362468 0 0 0
1768 0 15 0 -8.1564 4.0782 -28.567445673624682 0 0 0
1769 0 15 0 -6.1173 6.1173 -28.567445673624682 0 0 0
1770 0 15 0 -6.1173 4.0782 -26.52834567362468 0 0 0
1771 0 15 0 -8.1564 6.1173 -26.52834567362468 0 0 0
1772 0 15 0 -4.0782 4.0782 -28.567445673624682 0 0 0
1773 0 15 0 -2.0391 6.1173 -28.567445673624682 0 0 0
1774 0 15 0 -2.0391 4.0782 -26.52834567362468 0 0 0
1775 0 15 0 -4.0782 6.1173 -26.52834567362468 0 0 0
1786 0 15 0 -8.1564 8.1564 -28.567445673624682 0 0 0
1787 0 15 0 -6.1173 8.1564 -26.52834567362468 0 0 0
1788 0 15 0 -4.0782 8.1564 -28.567445673624682 0 0 0
1789 0 15 0 -2.0391 8.1564 -26.52834567362468 0 0 0
1814 0 15 0 -6.1173 2.0391 -24.489245673624684 0 0 0
1816 0 15 0 -2.0391 2.0391 -24.489245673624684 0 0 0
1822 0 15 0 -8.1564 4.0782 -24.489245673624684 0 0 0
1823 0 15 0 -6.1173 6.1173 -24.489245673624684 0 0 0
1824 0 15 0 -4.0782 4.0782 -24.489245673624684 0 0 0
1825 0 15 0 -2.0391 6.1173 -24.489245673624684 0 0 0
1831 0 15 0 -8.1564 8.1564 -24.489245673624684 0 0 0
1832 0 15 0 -4.0782 8.1564 -24.489245673624684 0 0 0
1759 0 15 0 2.0391 2.0391 -28.567445673624682 0 0 0
1761 0 15 0 0 2.0391 -26.52834567362468 0 0 0
1763 0 15 0 6.1173 2.0391 -28.567445673624682 0 0 0
1765 0 15 0 4.0782 2.0391 -26.52834567362468 0 0 0
1767 0 15 0 8.1564 2.0391 -26.52834567362468 0 0 0
1776 0 15 0 0 4.0782 -28.567445673624682 0 0 0
1777 0 15 0 2.0391 6.1173 -28.567445673624682 0 0 0
1778 0 15 0 2.0391 4.0782 -26.52834567362468 0 0 0
1779 0 15 0 0 6.1173 -26.52834567362468 0 0 0
1780 0 15 0 4.0782 4.0782 -28.567445673624682 0 0 0
1781 0 15 0 6.1173 6.1173 -28.567445673624682 0 0 0
1782 0 15 0 6.1173 4.0782 -26.52834567362468 0 0 0
1783 0 15 0 4.0782 6.1173 -26.52834567362468 0 0 0
1784 0 15 0 8.1564 4.0782 -28.567445673624682 0 0 0
1785 0 15 0 8.1564 6.1173 -26.52834567362468 0 0 0
1790 0 15 0 0 8.1564 -28.567445673624682 0 0 0
1791 0 15 0 2.0391 8.1564 -26.52834567362468 0 0 0
1792 0 15 0 4.0782 8.1564 -28.567445673624682 0 0 0
1793 0 15 0 6.1173 8.1564 -26.52834567362468 0 0 0
1794 0 15 0 8.1564 8.1564 -28.567445673624682 0 0 0
1818 0 15 0 2.0391 2.0391 -24.489245673624684 0 0 0
1820 0 15 0 6.1173 2.0391 -24.489245673624684 0 0 0
1826 0 15 0 0 4.0782 -24.489245673624684 0 0 0
1827 0 15 0 2.0391 6.1173 -24.489245673624684 0 0 0
1828 0 15 0 4.0782 4.0782 -24.489245673624684 0 0 0
1829 0 15 0 6.1173 6.1173 -24.489245673624684 0 0 0
1830 0 15 0 8.1564 4.0782 -24.489245673624684 0 0 0
1833 0 15 0 0 8.1564 -24.489245673624684 0 0 0
1834 0 15 0 4.0782 8.1564 -24.489245673624684 0 0 0
1835 0 15 0 8.1564 8.1564 -24.489245673624684 0 0 0
1419 463 4 0.417 6.428714358380168 7.434835728785209 -22.620407484180735 0 0 0
1 1 10 -0.3 -3.7285009111774636 -1.4646625249342167 -21.179187954355253 0 0 0
2 1 3 0.33 -3.6149213636519195 -0.8892357961651415 -22.04910547755412 0 0 0
3 1 3 0.33 -4.555895635048075 -1.1510869224793197 -20.611237617884402 0 0 0
4 1 3 0.33 -3.8204829588218 -2.4850433379503047 -21.40784583734002 0 0 0
10 1 8 -0.18 -1.0163812005326327 -3.3285020298780545 -21.03494398846574 0 0 0
11 1 1 0.09 -1.6371308479495048 -3.525710207263416 -21.93437850724158 0 0 0
12 1 1 0.09 -0.8269262705967791 -4.307774484694591 -20.535963089069416 0 0 0
116 29 4 0.417 -8.796107598849872 -7.750022896320654 -15.774665051974704 0 0 0
160 44 12 -0.834 -3.014252058319686 -6.704659858929667 -21.55822565698114 0 0 0
161 44 4 0.417 -3.497489016387816 -6.495689733761071 -20.729533475958718 0 0 0
162 44 4 0.417 -3.408312575409632 -7.552877749290154 -21.788315443953813 0 0 0
493 155 12 -0.834 -7.628189660837969 -8.08083132809166 -17.178277997875032 0 0 0
494 155 4 0.417 -6.980122082966768 -7.807503664911073 -17.84196412436079 0 0 0
495 155 4 0.417 -7.224504725601806 -8.93294148789431 -16.886310422386018 0 0 0
920 297 4 0.417 -9.307404662910931 -8.326583914937556 -17.824787455827465 0 0 0
937 303 12 -0.834 -4.256329045182658 -4.138786338306597 -21.53442395395427 0 0 0
938 303 4 0.417 -3.8077944312119394 -4.873194453033849 -21.98236943366518 0 0 0
939 303 4 0.417 -4.620516286255495 -4.622927451031787 -20.763617595294424 0 0 0
1030 334 12 -0.834 -9.762092767438201 -0.7876129058173345 -17.04089020849823 0 0 0
1045 339 12 -0.834 -8.212814936678148 -3.1092896007437445 -16.721544353124813 0 0 0
1046 339 4 0.417 -8.702879263025526 -2.3098875157179806 -17.003621900310467 0 0 0
1047 339 4 0.417 -8.74117637498694 -3.3601791417341214 -15.933688687883913 0 0 0
1144 372 12 -0.834 -0.2607804355276595 -6.34245489112986 -22.03402266850989 0 0 0
1146 372 4 0.417 -1.1897713319189787 -6.420748177443381 -21.728099771455152 0 0 0
1330 434 12 -0.834 -5.634038787278776 -0.7994121038511662 -19.293238380016483 0 0 0
1331 434 4 0.417 -6.36200508113639 -0.1812392027355324 -19.16766149320677 0 0 0
1332 434 4 0.417 -5.60479780926077 -1.2272923246744656 -18.407522483791976 0 0 0
1387 453 12 -0.834 -6.836837574893325 -5.337044138020542 -17.781766743635327 0 0 0
1388 453 4 0.417 -7.278822275427691 -4.498103570899936 -17.541045652968542 0 0 0
1389 453 4 0.417 -7.299016206607293 -5.956493416488317 -17.201733375017266 0 0 0
1435 469 12 -0.834 -2.629621300953167 -5.412618142419753 -17.747353580286536 0 0 0
1436 469 4 0.417 -1.8954882862666416 -5.807015213897532 -17.270007997041386 0 0 0
1447 473 12 -0.834 -4.678736602780269 -5.8467938739054 -19.45691987234933 0 0 0
1448 473 4 0.417 -5.470870553808552 -5.6807121241426985 -18.897402742536197 0 0 0
1449 473 4 0.417 -3.9654600138032827 -5.744759032924001 -18.78257208495087 0 0 0
5 1 7 0.21 -2.4796320645330923 -1.1782422837095792 -20.421518508302317 0 0 0
6 1 2 0.1 -2.7608665755923005 -0.607025459703696 -19.54803529736262 0 0 0
7 1 8 -0.18 -1.7886637775773282 -2.499562637315509 -19.973794796949186 0 0 0
8 1 1 0.09 -2.553106714138475 -3.152443891815075 -19.495033897701422 0 0 0
9 1 1 0.09 -1.0642255378237953 -2.230747954141206 -19.16994083499298 0 0 0
25 1 6 0.34 -1.5588194104818758 -0.269240042339713 -21.2569667985146 0 0 0
1093 355 12 -0.834 -5.728654434655923 -1.9710299584443396 -16.804447774113687 0 0 0
1094 355 4 0.417 -6.5974732363723545 -2.4267416309405845 -16.795533534559677 0 0 0
1095 355 4 0.417 -5.533447542709518 -1.9608090787789538 -15.843425071476544 0 0 0
1228 400 12 -0.834 -3.3404684000545846 -3.264722040043486 -16.264229142731388 0 0 0
1229 400 4 0.417 -4.075723456688885 -2.8316547328752777 -16.733336486791558 0 0 0
1230 400 4 0.417 -3.567337702443103 -3.010687876686051 -15.353078643327088 0 0 0
1437 469 4 0.417 -2.8340696133076944 -4.6302198719532495 -17.18438225895739 0 0 0
23 1 3 0.46 2.578561502405171 -1.6338214073132553 -21.62335433291696 0 0 0
919 297 12 -0.834 9.922033989011474 -8.436262907549331 -17.98448276998509 -1 0 0
921 297 4 0.417 9.567806281705757 -7.639365429020923 -17.57191923833173 -1 0 0
1032 334 4 0.417 9.723677307145856 -1.3922677716421483 -16.7211502666945 -1 0 0
13 1 8 0.2 0.32681477023234307 -2.7087661452987666 -21.46870256076507 0 0 0
15 1 1 0.09 0.207438954901238 -2.0921184310708005 -22.390950004435613 0 0 0
16 1 9 -0.7 1.316416817886938 -3.8096874426019838 -21.707342282142182 0 0 0
17 1 3 0.44 0.9918017242029693 -4.760125914060674 -21.72698195469285 0 0 0
18 1 5 0.64 2.6254620765995 -3.6234812180969653 -21.62573885779726 0 0 0
19 1 9 -0.8 3.4448565595871337 -4.645334510280044 -21.521984553392812 0 0 0
20 1 3 0.46 4.3996009223096735 -4.434182524453064 -21.333937007795623 0 0 0
21 1 3 0.46 3.045696514247671 -5.558073098604649 -21.33015459658204 0 0 0
22 1 9 -0.8 3.17285462006963 -2.427617690159051 -21.602926895915008 0 0 0
24 1 3 0.46 4.16825643441057 -2.382017131406736 -21.44786757568419 0 0 0
709 227 12 -0.834 8.437011632183744 -2.5129743363247634 -16.25524373695829 0 0 0
710 227 4 0.417 7.7297135273233115 -2.2175882279919827 -15.669282275316537 0 0 0
711 227 4 0.417 9.018092045194704 -3.0056070230962884 -15.635873219573908 0 0 0
871 281 12 -0.834 7.278737180668996 -1.9156746373596432 -18.86639012483823 0 0 0
872 281 4 0.417 7.490810278334282 -0.9814131578904837 -18.65710937724457 0 0 0
873 281 4 0.417 7.647040514845681 -2.3396536377611024 -18.07140892035524 0 0 0
1031 334 4 0.417 9.845298340388462 -0.166344502286761 -17.523534399660715 -1 0 0
1168 380 12 -0.834 5.904348587617898 -2.8069393681547026 -21.095396631608082 0 0 0
1169 380 4 0.417 6.707549784880908 -2.7771302113487137 -21.625635032607768 0 0 0
1170 380 4 0.417 6.273477062395363 -2.51615369419608 -20.225532571938206 0 0 0
1189 387 12 -0.834 2.1600594838508496 -6.9858052089742015 -20.878105876589686 0 0 0
1190 387 4 0.417 2.1281188637206 -7.569596865229763 -20.087710891589374 0 0 0
1191 387 4 0.417 1.2291955691769718 -6.999943042189219 -21.169723793392524 0 0 0
1468 480 12 -0.834 7.083013683666448 -9.80500124743236 -17.19598406437423 0 0 0
1470 480 4 0.417 6.99959089872122 -9.010429095505376 -16.635116398728343 0 0 0
1486 486 12 -0.834 2.1306430639017924 -8.636106978810693 -18.640177378067033 0 0 0
1487 486 4 0.417 1.7988608094637517 -8.804921663201599 -17.737536676214166 0 0 0
1488 486 4 0.417 2.917228952657547 -9.188026448527228 -18.654140422093636 0 0 0
14 1 1 0.09 0.7012445553821417 -2.065129654272078 -20.63838232283829 0 0 0
1450 474 12 -0.834 1.7655503228730602 -9.459960529860064 -15.932143039629167 0 0 0
1451 474 4 0.417 2.6048390233678993 -9.08260839536266 -15.583648523050293 0 0 0
26 1 11 -0.67 -1.9785768188644668 0.09074843930642748 -22.38623674484444 0 0 0
27 1 11 -0.67 -0.43954616805932917 0.06034717344040049 -20.792111552577232 0 0 0
40 4 12 -0.834 -3.9948383895172612 9.322309958584762 -17.80242733302247 0 0 0
41 4 4 0.417 -3.573024119721456 8.673974591791984 -18.370239660831242 0 0 0
42 4 4 0.417 -3.2422956685844877 9.5904480777424 -17.22871552641228 0 0 0
64 12 12 -0.834 -6.622856178488474 5.423248060679479 -15.394368861074838 0 0 0
124 32 12 -0.834 -6.439796291000913 9.524369100608814 -16.627608140173216 0 0 0
125 32 4 0.417 -6.203245085226555 9.126202079776746 -15.760706706232712 0 0 0
126 32 4 0.417 -5.5749946985604595 9.43453909410458 -17.093219637132236 0 0 0
373 115 12 -0.834 -1.8619024998229685 9.763120132501117 -16.166863826425665 0 0 0
374 115 4 0.417 -0.9150038964379794 9.879305023751604 -16.0347249509622 0 0 0
375 115 4 0.417 -2.1708759504029618 9.519232501186515 -15.271983351754272 0 0 0
616 196 12 -0.834 -9.110260231140845 6.406874511234947 -15.853602656609064 0 0 0
617 196 4 0.417 -9.393105855715662 5.508414708062599 -16.116569862180487 0 0 0
618 196 4 0.417 -8.1689125336287 6.190216215802706 -15.659366796601997 0 0 0
895 289 12 -0.834 -8.908845393060641 8.679498423983235 -17.52033062462001 0 0 0
896 289 4 0.417 -8.01095070216657 9.007076897416615 -17.305111729872237 0 0 0
897 289 4 0.417 -8.899389366073644 7.824782756073599 -17.053666211886608 0 0 0
1276 416 12 -0.834 -8.692584415135352 3.7138690904833846 -16.526307393278323 0 0 0
1277 416 4 0.417 -8.523662265751671 2.7878047727963486 -16.25601576572921 0 0 0
1278 416 4 0.417 -7.836246933453436 4.126851691645896 -16.31871267934462 0 0 0
1498 490 12 -0.834 -8.183269902774342 1.1046900878882142 -15.65464860068923 0 0 0
1499 490 4 0.417 -8.595592194287185 0.41358384320413905 -16.212618460493815 0 0 0
30 1 13 1 9.109544560523561 9.38250412317108 -18.044064639620156 0 0 0
385 119 12 -0.834 8.10873773938799 0.540433890351693 -17.831271337067637 0 0 0
387 119 4 0.417 7.586164158499834 0.750492105254247 -17.023823092544326 0 0 0