ITEM: TIMESTEP
2185
ITEM: NUMBER OF ATOMS
1835
ITEM: BOX BOUNDS pp pp pp
-1.0093999999999999e+01 1.0093999999999999e+01
-9.9900000000000002e+00 9.9900035801999998e+00
-3.6864073260000005e+01 2.0736999999999998e+01
ITEM: ATOMS id type element mass x y z vx vy vz ix iy iz
1552 15 C 197 -8.1564 -8.1564 -36.7238 0 0 0 0 0 0
1553 15 C 197 -6.1173 -6.1173 -36.7238 0 0 0 0 0 0
1554 15 C 197 -6.1173 -8.1564 -34.6847 0 0 0 0 0 0
1555 15 C 197 -8.1564 -6.1173 -34.6847 0 0 0 0 0 0
1556 15 C 197 -4.0782 -8.1564 -36.7238 0 0 0 0 0 0
1557 15 C 197 -2.0391 -6.1173 -36.7238 0 0 0 0 0 0
1558 15 C 197 -2.0391 -8.1564 -34.6847 0 0 0 0 0 0
1559 15 C 197 -4.0782 -6.1173 -34.6847 0 0 0 0 0 0
1570 15 C 197 -8.1564 -4.0782 -36.7238 0 0 0 0 0 0
1571 15 C 197 -6.1173 -2.0391 -36.7238 0 0 0 0 0 0
1572 15 C 197 -6.1173 -4.0782 -34.6847 0 0 0 0 0 0
1573 15 C 197 -8.1564 -2.0391 -34.6847 0 0 0 0 0 0
1574 15 C 197 -4.0782 -4.0782 -36.7238 0 0 0 0 0 0
1575 15 C 197 -2.0391 -2.0391 -36.7238 0 0 0 0 0 0
1576 15 C 197 -2.0391 -4.0782 -34.6847 0 0 0 0 0 0
1577 15 C 197 -4.0782 -2.0391 -34.6847 0 0 0 0 0 0
1588 15 C 197 -8.1564 0 -36.7238 0 0 0 0 0 0
1590 15 C 197 -6.1173 0 -34.6847 0 0 0 0 0 0
1592 15 C 197 -4.0782 0 -36.7238 0 0 0 0 0 0
1594 15 C 197 -2.0391 0 -34.6847 0 0 0 0 0 0
1633 15 C 197 -8.1564 -8.1564 -32.6456 0 0 0 0 0 0
1634 15 C 197 -6.1173 -6.1173 -32.6456 0 0 0 0 0 0
1635 15 C 197 -6.1173 -8.1564 -30.6065 0 0 0 0 0 0
1636 15 C 197 -8.1564 -6.1173 -30.6065 0 0 0 0 0 0
1637 15 C 197 -4.0782 -8.1564 -32.6456 0 0 0 0 0 0
1638 15 C 197 -2.0391 -6.1173 -32.6456 0 0 0 0 0 0
1639 15 C 197 -2.0391 -8.1564 -30.6065 0 0 0 0 0 0
1640 15 C 197 -4.0782 -6.1173 -30.6065 0 0 0 0 0 0
1651 15 C 197 -8.1564 -4.0782 -32.6456 0 0 0 0 0 0
1652 15 C 197 -6.1173 -2.0391 -32.6456 0 0 0 0 0 0
1653 15 C 197 -6.1173 -4.0782 -30.6065 0 0 0 0 0 0
1654 15 C 197 -8.1564 -2.0391 -30.6065 0 0 0 0 0 0
1655 15 C 197 -4.0782 -4.0782 -32.6456 0 0 0 0 0 0
1656 15 C 197 -2.0391 -2.0391 -32.6456 0 0 0 0 0 0
1657 15 C 197 -2.0391 -4.0782 -30.6065 0 0 0 0 0 0
1658 15 C 197 -4.0782 -2.0391 -30.6065 0 0 0 0 0 0
1669 15 C 197 -8.1564 0 -32.6456 0 0 0 0 0 0
1671 15 C 197 -6.1173 0 -30.6065 0 0 0 0 0 0
1673 15 C 197 -4.0782 0 -32.6456 0 0 0 0 0 0
1675 15 C 197 -2.0391 0 -30.6065 0 0 0 0 0 0
1560 15 C 197 0 -8.1564 -36.7238 0 0 0 0 0 0
1561 15 C 197 2.0391 -6.1173 -36.7238 0 0 0 0 0 0
1562 15 C 197 2.0391 -8.1564 -34.6847 0 0 0 0 0 0
1563 15 C 197 0 -6.1173 -34.6847 0 0 0 0 0 0
1564 15 C 197 4.0782 -8.1564 -36.7238 0 0 0 0 0 0
1565 15 C 197 6.1173 -6.1173 -36.7238 0 0 0 0 0 0
1566 15 C 197 6.1173 -8.1564 -34.6847 0 0 0 0 0 0
1567 15 C 197 4.0782 -6.1173 -34.6847 0 0 0 0 0 0
1568 15 C 197 8.1564 -8.1564 -36.7238 0 0 0 0 0 0
1569 15 C 197 8.1564 -6.1173 -34.6847 0 0 0 0 0 0
1578 15 C 197 0 -4.0782 -36.7238 0 0 0 0 0 0
1579 15 C 197 2.0391 -2.0391 -36.7238 0 0 0 0 0 0
1580 15 C 197 2.0391 -4.0782 -34.6847 0 0 0 0 0 0
1581 15 C 197 0 -2.0391 -34.6847 0 0 0 0 0 0
1582 15 C 197 4.0782 -4.0782 -36.7238 0 0 0 0 0 0
1583 15 C 197 6.1173 -2.0391 -36.7238 0 0 0 0 0 0
1584 15 C 197 6.1173 -4.0782 -34.6847 0 0 0 0 0 0
1585 15 C 197 4.0782 -2.0391 -34.6847 0 0 0 0 0 0
1586 15 C 197 8.1564 -4.0782 -36.7238 0 0 0 0 0 0
1587 15 C 197 8.1564 -2.0391 -34.6847 0 0 0 0 0 0
1596 15 C 197 0 0 -36.7238 0 0 0 0 0 0
1598 15 C 197 2.0391 0 -34.6847 0 0 0 0 0 0
1600 15 C 197 4.0782 0 -36.7238 0 0 0 0 0 0
1602 15 C 197 6.1173 0 -34.6847 0 0 0 0 0 0
1604 15 C 197 8.1564 0 -36.7238 0 0 0 0 0 0
1641 15 C 197 0 -8.1564 -32.6456 0 0 0 0 0 0
1642 15 C 197 2.0391 -6.1173 -32.6456 0 0 0 0 0 0
1643 15 C 197 2.0391 -8.1564 -30.6065 0 0 0 0 0 0
1644 15 C 197 0 -6.1173 -30.6065 0 0 0 0 0 0
1645 15 C 197 4.0782 -8.1564 -32.6456 0 0 0 0 0 0
1646 15 C 197 6.1173 -6.1173 -32.6456 0 0 0 0 0 0
1647 15 C 197 6.1173 -8.1564 -30.6065 0 0 0 0 0 0
1648 15 C 197 4.0782 -6.1173 -30.6065 0 0 0 0 0 0
1649 15 C 197 8.1564 -8.1564 -32.6456 0 0 0 0 0 0
1650 15 C 197 8.1564 -6.1173 -30.6065 0 0 0 0 0 0
1659 15 C 197 0 -4.0782 -32.6456 0 0 0 0 0 0
1660 15 C 197 2.0391 -2.0391 -32.6456 0 0 0 0 0 0
1661 15 C 197 2.0391 -4.0782 -30.6065 0 0 0 0 0 0
1662 15 C 197 0 -2.0391 -30.6065 0 0 0 0 0 0
1663 15 C 197 4.0782 -4.0782 -32.6456 0 0 0 0 0 0
1664 15 C 197 6.1173 -2.0391 -32.6456 0 0 0 0 0 0
1665 15 C 197 6.1173 -4.0782 -30.6065 0 0 0 0 0 0
1666 15 C 197 4.0782 -2.0391 -30.6065 0 0 0 0 0 0
1667 15 C 197 8.1564 -4.0782 -32.6456 0 0 0 0 0 0
1668 15 C 197 8.1564 -2.0391 -30.6065 0 0 0 0 0 0
1677 15 C 197 0 0 -32.6456 0 0 0 0 0 0
1679 15 C 197 2.0391 0 -30.6065 0 0 0 0 0 0
1681 15 C 197 4.0782 0 -32.6456 0 0 0 0 0 0
1683 15 C 197 6.1173 0 -30.6065 0 0 0 0 0 0
1685 15 C 197 8.1564 0 -32.6456 0 0 0 0 0 0
1589 15 C 197 -6.1173 2.0391 -36.7238 0 0 0 0 0 0
1591 15 C 197 -8.1564 2.0391 -34.6847 0 0 0 0 0 0
1593 15 C 197 -2.0391 2.0391 -36.7238 0 0 0 0 0 0
1595 15 C 197 -4.0782 2.0391 -34.6847 0 0 0 0 0 0
1606 15 C 197 -8.1564 4.0782 -36.7238 0 0 0 0 0 0
1607 15 C 197 -6.1173 6.1173 -36.7238 0 0 0 0 0 0
1608 15 C 197 -6.1173 4.0782 -34.6847 0 0 0 0 0 0
1609 15 C 197 -8.1564 6.1173 -34.6847 0 0 0 0 0 0
1610 15 C 197 -4.0782 4.0782 -36.7238 0 0 0 0 0 0
1611 15 C 197 -2.0391 6.1173 -36.7238 0 0 0 0 0 0
1612 15 C 197 -2.0391 4.0782 -34.6847 0 0 0 0 0 0
1613 15 C 197 -4.0782 6.1173 -34.6847 0 0 0 0 0 0
1624 15 C 197 -8.1564 8.1564 -36.7238 0 0 0 0 0 0
1625 15 C 197 -6.1173 8.1564 -34.6847 0 0 0 0 0 0
1626 15 C 197 -4.0782 8.1564 -36.7238 0 0 0 0 0 0
1627 15 C 197 -2.0391 8.1564 -34.6847 0 0 0 0 0 0
1670 15 C 197 -6.1173 2.0391 -32.6456 0 0 0 0 0 0
1672 15 C 197 -8.1564 2.0391 -30.6065 0 0 0 0 0 0
1674 15 C 197 -2.0391 2.0391 -32.6456 0 0 0 0 0 0
1676 15 C 197 -4.0782 2.0391 -30.6065 0 0 0 0 0 0
1687 15 C 197 -8.1564 4.0782 -32.6456 0 0 0 0 0 0
1688 15 C 197 -6.1173 6.1173 -32.6456 0 0 0 0 0 0
1689 15 C 197 -6.1173 4.0782 -30.6065 0 0 0 0 0 0
1690 15 C 197 -8.1564 6.1173 -30.6065 0 0 0 0 0 0
1691 15 C 197 -4.0782 4.0782 -32.6456 0 0 0 0 0 0
1692 15 C 197 -2.0391 6.1173 -32.6456 0 0 0 0 0 0
1693 15 C 197 -2.0391 4.0782 -30.6065 0 0 0 0 0 0
1694 15 C 197 -4.0782 6.1173 -30.6065 0 0 0 0 0 0
1705 15 C 197 -8.1564 8.1564 -32.6456 0 0 0 0 0 0
1706 15 C 197 -6.1173 8.1564 -30.6065 0 0 0 0 0 0
1707 15 C 197 -4.0782 8.1564 -32.6456 0 0 0 0 0 0
1708 15 C 197 -2.0391 8.1564 -30.6065 0 0 0 0 0 0
1597 15 C 197 2.0391 2.0391 -36.7238 0 0 0 0 0 0
1599 15 C 197 0 2.0391 -34.6847 0 0 0 0 0 0
1601 15 C 197 6.1173 2.0391 -36.7238 0 0 0 0 0 0
1603 15 C 197 4.0782 2.0391 -34.6847 0 0 0 0 0 0
1605 15 C 197 8.1564 2.0391 -34.6847 0 0 0 0 0 0
1614 15 C 197 0 4.0782 -36.7238 0 0 0 0 0 0
1615 15 C 197 2.0391 6.1173 -36.7238 0 0 0 0 0 0
1616 15 C 197 2.0391 4.0782 -34.6847 0 0 0 0 0 0
1617 15 C 197 0 6.1173 -34.6847 0 0 0 0 0 0
1618 15 C 197 4.0782 4.0782 -36.7238 0 0 0 0 0 0
1619 15 C 197 6.1173 6.1173 -36.7238 0 0 0 0 0 0
1620 15 C 197 6.1173 4.0782 -34.6847 0 0 0 0 0 0
1621 15 C 197 4.0782 6.1173 -34.6847 0 0 0 0 0 0
1622 15 C 197 8.1564 4.0782 -36.7238 0 0 0 0 0 0
1623 15 C 197 8.1564 6.1173 -34.6847 0 0 0 0 0 0
1628 15 C 197 0 8.1564 -36.7238 0 0 0 0 0 0
1629 15 C 197 2.0391 8.1564 -34.6847 0 0 0 0 0 0
1630 15 C 197 4.0782 8.1564 -36.7238 0 0 0 0 0 0
1631 15 C 197 6.1173 8.1564 -34.6847 0 0 0 0 0 0
1632 15 C 197 8.1564 8.1564 -36.7238 0 0 0 0 0 0
1678 15 C 197 2.0391 2.0391 -32.6456 0 0 0 0 0 0
1680 15 C 197 0 2.0391 -30.6065 0 0 0 0 0 0
1682 15 C 197 6.1173 2.0391 -32.6456 0 0 0 0 0 0
1684 15 C 197 4.0782 2.0391 -30.6065 0 0 0 0 0 0
1686 15 C 197 8.1564 2.0391 -30.6065 0 0 0 0 0 0
1695 15 C 197 0 4.0782 -32.6456 0 0 0 0 0 0
1696 15 C 197 2.0391 6.1173 -32.6456 0 0 0 0 0 0
1697 15 C 197 2.0391 4.0782 -30.6065 0 0 0 0 0 0
1698 15 C 197 0 6.1173 -30.6065 0 0 0 0 0 0
1699 15 C 197 4.0782 4.0782 -32.6456 0 0 0 0 0 0
1700 15 C 197 6.1173 6.1173 -32.6456 0 0 0 0 0 0
1701 15 C 197 6.1173 4.0782 -30.6065 0 0 0 0 0 0
1702 15 C 197 4.0782 6.1173 -30.6065 0 0 0 0 0 0
1703 15 C 197 8.1564 4.0782 -32.6456 0 0 0 0 0 0
1704 15 C 197 8.1564 6.1173 -30.6065 0 0 0 0 0 0
1709 15 C 197 0 8.1564 -32.6456 0 0 0 0 0 0
1710 15 C 197 2.0391 8.1564 -30.6065 0 0 0 0 0 0
1711 15 C 197 4.0782 8.1564 -32.6456 0 0 0 0 0 0
1712 15 C 197 6.1173 8.1564 -30.6065 0 0 0 0 0 0
1713 15 C 197 8.1564 8.1564 -32.6456 0 0 0 0 0 0
1714 15 C 197 -8.1564 -8.1564 -28.5674 0 0 0 0 0 0
1715 15 C 197 -6.1173 -6.1173 -28.5674 0 0 0 0 0 0
1716 15 C 197 -6.1173 -8.1564 -26.5283 0 0 0 0 0 0
1717 15 C 197 -8.1564 -6.1173 -26.5283 0 0 0 0 0 0
1718 15 C 197 -4.0782 -8.1564 -28.5674 0 0 0 0 0 0
1719 15 C 197 -2.0391 -6.1173 -28.5674 0 0 0 0 0 0
1720 15 C 197 -2.0391 -8.1564 -26.5283 0 0 0 0 0 0
1721 15 C 197 -4.0782 -6.1173 -26.5283 0 0 0 0 0 0
1732 15 C 197 -8.1564 -4.0782 -28.5674 0 0 0 0 0 0
1733 15 C 197 -6.1173 -2.0391 -28.5674 0 0 0 0 0 0
1734 15 C 197 -6.1173 -4.0782 -26.5283 0 0 0 0 0 0
1735 15 C 197 -8.1564 -2.0391 -26.5283 0 0 0 0 0 0
1736 15 C 197 -4.0782 -4.0782 -28.5674 0 0 0 0 0 0
1737 15 C 197 -2.0391 -2.0391 -28.5674 0 0 0 0 0 0
1738 15 C 197 -2.0391 -4.0782 -26.5283 0 0 0 0 0 0
1739 15 C 197 -4.0782 -2.0391 -26.5283 0 0 0 0 0 0
1750 15 C 197 -8.1564 0 -28.5674 0 0 0 0 0 0
1752 15 C 197 -6.1173 0 -26.5283 0 0 0 0 0 0
1754 15 C 197 -4.0782 0 -28.5674 0 0 0 0 0 0
1756 15 C 197 -2.0391 0 -26.5283 0 0 0 0 0 0
1795 15 C 197 -8.1564 -8.1564 -24.4892 0 0 0 0 0 0
1796 15 C 197 -6.1173 -6.1173 -24.4892 0 0 0 0 0 0
1797 15 C 197 -4.0782 -8.1564 -24.4892 0 0 0 0 0 0
1798 15 C 197 -2.0391 -6.1173 -24.4892 0 0 0 0 0 0
1804 15 C 197 -8.1564 -4.0782 -24.4892 0 0 0 0 0 0
1805 15 C 197 -6.1173 -2.0391 -24.4892 0 0 0 0 0 0
1806 15 C 197 -4.0782 -4.0782 -24.4892 0 0 0 0 0 0
1807 15 C 197 -2.0391 -2.0391 -24.4892 0 0 0 0 0 0
1813 15 C 197 -8.1564 0 -24.4892 0 0 0 0 0 0
1815 15 C 197 -4.0782 0 -24.4892 0 0 0 0 0 0
1145 4 C 1.008 -0.347502 -6.61787 -22.953 0 0 0 0 0 0
1722 15 C 197 0 -8.1564 -28.5674 0 0 0 0 0 0
1723 15 C 197 2.0391 -6.1173 -28.5674 0 0 0 0 0 0
1724 15 C 197 2.0391 -8.1564 -26.5283 0 0 0 0 0 0
1725 15 C 197 0 -6.1173 -26.5283 0 0 0 0 0 0
1726 15 C 197 4.0782 -8.1564 -28.5674 0 0 0 0 0 0
1727 15 C 197 6.1173 -6.1173 -28.5674 0 0 0 0 0 0
1728 15 C 197 6.1173 -8.1564 -26.5283 0 0 0 0 0 0
1729 15 C 197 4.0782 -6.1173 -26.5283 0 0 0 0 0 0
1730 15 C 197 8.1564 -8.1564 -28.5674 0 0 0 0 0 0
1731 15 C 197 8.1564 -6.1173 -26.5283 0 0 0 0 0 0
1740 15 C 197 0 -4.0782 -28.5674 0 0 0 0 0 0
1741 15 C 197 2.0391 -2.0391 -28.5674 0 0 0 0 0 0
1742 15 C 197 2.0391 -4.0782 -26.5283 0 0 0 0 0 0
1743 15 C 197 0 -2.0391 -26.5283 0 0 0 0 0 0
1744 15 C 197 4.0782 -4.0782 -28.5674 0 0 0 0 0 0
1745 15 C 197 6.1173 -2.0391 -28.5674 0 0 0 0 0 0
1746 15 C 197 6.1173 -4.0782 -26.5283 0 0 0 0 0 0
1747 15 C 197 4.0782 -2.0391 -26.5283 0 0 0 0 0 0
1748 15 C 197 8.1564 -4.0782 -28.5674 0 0 0 0 0 0
1749 15 C 197 8.1564 -2.0391 -26.5283 0 0 0 0 0 0
1758 15 C 197 0 0 -28.5674 0 0 0 0 0 0
1760 15 C 197 2.0391 0 -26.5283 0 0 0 0 0 0
1762 15 C 197 4.0782 0 -28.5674 0 0 0 0 0 0
1764 15 C 197 6.1173 0 -26.5283 0 0 0 0 0 0
1766 15 C 197 8.1564 0 -28.5674 0 0 0 0 0 0
1799 15 C 197 0 -8.1564 -24.4892 0 0 0 0 0 0
1800 15 C 197 2.0391 -6.1173 -24.4892 0 0 0 0 0 0
1801 15 C 197 4.0782 -8.1564 -24.4892 0 0 0 0 0 0
1802 15 C 197 6.1173 -6.1173 -24.4892 0 0 0 0 0 0
1803 15 C 197 8.1564 -8.1564 -24.4892 0 0 0 0 0 0
1808 15 C 197 0 -4.0782 -24.4892 0 0 0 0 0 0
1809 15 C 197 2.0391 -2.0391 -24.4892 0 0 0 0 0 0
1810 15 C 197 4.0782 -4.0782 -24.4892 0 0 0 0 0 0
1811 15 C 197 6.1173 -2.0391 -24.4892 0 0 0 0 0 0
1812 15 C 197 8.1564 -4.0782 -24.4892 0 0 0 0 0 0
1817 15 C 197 0 0 -24.4892 0 0 0 0 0 0
1819 15 C 197 4.0782 0 -24.4892 0 0 0 0 0 0
1821 15 C 197 8.1564 0 -24.4892 0 0 0 0 0 0
1751 15 C 197 -6.1173 2.0391 -28.5674 0 0 0 0 0 0
1753 15 C 197 -8.1564 2.0391 -26.5283 0 0 0 0 0 0
1755 15 C 197 -2.0391 2.0391 -28.5674 0 0 0 0 0 0
1757 15 C 197 -4.0782 2.0391 -26.5283 0 0 0 0 0 0
1768 15 C 197 -8.1564 4.0782 -28.5674 0 0 0 0 0 0
1769 15 C 197 -6.1173 6.1173 -28.5674 0 0 0 0 0 0
1770 15 C 197 -6.1173 4.0782 -26.5283 0 0 0 0 0 0
1771 15 C 197 -8.1564 6.1173 -26.5283 0 0 0 0 0 0
1772 15 C 197 -4.0782 4.0782 -28.5674 0 0 0 0 0 0
1773 15 C 197 -2.0391 6.1173 -28.5674 0 0 0 0 0 0
1774 15 C 197 -2.0391 4.0782 -26.5283 0 0 0 0 0 0
1775 15 C 197 -4.0782 6.1173 -26.5283 0 0 0 0 0 0
1786 15 C 197 -8.1564 8.1564 -28.5674 0 0 0 0 0 0
1787 15 C 197 -6.1173 8.1564 -26.5283 0 0 0 0 0 0
1788 15 C 197 -4.0782 8.1564 -28.5674 0 0 0 0 0 0
1789 15 C 197 -2.0391 8.1564 -26.5283 0 0 0 0 0 0
1814 15 C 197 -6.1173 2.0391 -24.4892 0 0 0 0 0 0
1816 15 C 197 -2.0391 2.0391 -24.4892 0 0 0 0 0 0
1822 15 C 197 -8.1564 4.0782 -24.4892 0 0 0 0 0 0
1823 15 C 197 -6.1173 6.1173 -24.4892 0 0 0 0 0 0
1824 15 C 197 -4.0782 4.0782 -24.4892 0 0 0 0 0 0
1825 15 C 197 -2.0391 6.1173 -24.4892 0 0 0 0 0 0
1831 15 C 197 -8.1564 8.1564 -24.4892 0 0 0 0 0 0
1832 15 C 197 -4.0782 8.1564 -24.4892 0 0 0 0 0 0
1759 15 C 197 2.0391 2.0391 -28.5674 0 0 0 0 0 0
1761 15 C 197 0 2.0391 -26.5283 0 0 0 0 0 0
1763 15 C 197 6.1173 2.0391 -28.5674 0 0 0 0 0 0
1765 15 C 197 4.0782 2.0391 -26.5283 0 0 0 0 0 0
1767 15 C 197 8.1564 2.0391 -26.5283 0 0 0 0 0 0
1776 15 C 197 0 4.0782 -28.5674 0 0 0 0 0 0
1777 15 C 197 2.0391 6.1173 -28.5674 0 0 0 0 0 0
1778 15 C 197 2.0391 4.0782 -26.5283 0 0 0 0 0 0
1779 15 C 197 0 6.1173 -26.5283 0 0 0 0 0 0
1780 15 C 197 4.0782 4.0782 -28.5674 0 0 0 0 0 0
1781 15 C 197 6.1173 6.1173 -28.5674 0 0 0 0 0 0
1782 15 C 197 6.1173 4.0782 -26.5283 0 0 0 0 0 0
1783 15 C 197 4.0782 6.1173 -26.5283 0 0 0 0 0 0
1784 15 C 197 8.1564 4.0782 -28.5674 0 0 0 0 0 0
1785 15 C 197 8.1564 6.1173 -26.5283 0 0 0 0 0 0
1790 15 C 197 0 8.1564 -28.5674 0 0 0 0 0 0
1791 15 C 197 2.0391 8.1564 -26.5283 0 0 0 0 0 0
1792 15 C 197 4.0782 8.1564 -28.5674 0 0 0 0 0 0
1793 15 C 197 6.1173 8.1564 -26.5283 0 0 0 0 0 0
1794 15 C 197 8.1564 8.1564 -28.5674 0 0 0 0 0 0
1818 15 C 197 2.0391 2.0391 -24.4892 0 0 0 0 0 0
1820 15 C 197 6.1173 2.0391 -24.4892 0 0 0 0 0 0
1826 15 C 197 0 4.0782 -24.4892 0 0 0 0 0 0
1827 15 C 197 2.0391 6.1173 -24.4892 0 0 0 0 0 0
1828 15 C 197 4.0782 4.0782 -24.4892 0 0 0 0 0 0
1829 15 C 197 6.1173 6.1173 -24.4892 0 0 0 0 0 0
1830 15 C 197 8.1564 4.0782 -24.4892 0 0 0 0 0 0
1833 15 C 197 0 8.1564 -24.4892 0 0 0 0 0 0
1834 15 C 197 4.0782 8.1564 -24.4892 0 0 0 0 0 0
1835 15 C 197 8.1564 8.1564 -24.4892 0 0 0 0 0 0
1419 4 C 1.008 6.42871 7.43484 -22.6204 0 0 0 0 0 0
1 10 C 14.007 -3.7285 -1.46466 -21.1792 0 0 0 0 0 0
2 3 C 1.008 -3.61492 -0.889236 -22.0491 0 0 0 0 0 0
3 3 C 1.008 -4.5559 -1.15109 -20.6112 0 0 0 0 0 0
4 3 C 1.008 -3.82048 -2.48504 -21.4078 0 0 0 0 0 0
10 8 C 12.011 -1.01638 -3.3285 -21.0349 0 0 0 0 0 0
11 1 C 1.008 -1.63713 -3.52571 -21.9344 0 0 0 0 0 0
12 1 C 1.008 -0.826926 -4.30777 -20.536 0 0 0 0 0 0
116 4 C 1.008 -8.79611 -7.75002 -15.7747 0 0 0 0 0 0
160 12 C 15.999 -3.01425 -6.70466 -21.5582 0 0 0 0 0 0
161 4 C 1.008 -3.49749 -6.49569 -20.7295 0 0 0 0 0 0
162 4 C 1.008 -3.40831 -7.55288 -21.7883 0 0 0 0 0 0
493 12 C 15.999 -7.62819 -8.08083 -17.1783 0 0 0 0 0 0
494 4 C 1.008 -6.98012 -7.8075 -17.842 0 0 0 0 0 0
495 4 C 1.008 -7.2245 -8.93294 -16.8863 0 0 0 0 0 0
920 4 C 1.008 -9.3074 -8.32658 -17.8248 0 0 0 0 0 0
937 12 C 15.999 -4.25633 -4.13879 -21.5344 0 0 0 0 0 0
938 4 C 1.008 -3.80779 -4.87319 -21.9824 0 0 0 0 0 0
939 4 C 1.008 -4.62052 -4.62293 -20.7636 0 0 0 0 0 0
1030 12 C 15.999 -9.76209 -0.787613 -17.0409 0 0 0 0 0 0
1045 12 C 15.999 -8.21281 -3.10929 -16.7215 0 0 0 0 0 0
1046 4 C 1.008 -8.70288 -2.30989 -17.0036 0 0 0 0 0 0
1047 4 C 1.008 -8.74118 -3.36018 -15.9337 0 0 0 0 0 0
1144 12 C 15.999 -0.26078 -6.34245 -22.034 0 0 0 0 0 0
1146 4 C 1.008 -1.18977 -6.42075 -21.7281 0 0 0 0 0 0
1330 12 C 15.999 -5.63404 -0.799412 -19.2932 0 0 0 0 0 0
1331 4 C 1.008 -6.36201 -0.181239 -19.1677 0 0 0 0 0 0
1332 4 C 1.008 -5.6048 -1.22729 -18.4075 0 0 0 0 0 0
1387 12 C 15.999 -6.83684 -5.33704 -17.7818 0 0 0 0 0 0
1388 4 C 1.008 -7.27882 -4.4981 -17.541 0 0 0 0 0 0
1389 4 C 1.008 -7.29902 -5.95649 -17.2017 0 0 0 0 0 0
1435 12 C 15.999 -2.62962 -5.41262 -17.7474 0 0 0 0 0 0
1436 4 C 1.008 -1.89549 -5.80702 -17.27 0 0 0 0 0 0
1447 12 C 15.999 -4.67874 -5.84679 -19.4569 0 0 0 0 0 0
1448 4 C 1.008 -5.47087 -5.68071 -18.8974 0 0 0 0 0 0
1449 4 C 1.008 -3.96546 -5.74476 -18.7826 0 0 0 0 0 0
5 7 C 12.011 -2.47963 -1.17824 -20.4215 0 0 0 0 0 0
6 2 C 1.008 -2.76087 -0.607025 -19.548 0 0 0 0 0 0
7 8 C 12.011 -1.78866 -2.49956 -19.9738 0 0 0 0 0 0
8 1 C 1.008 -2.55311 -3.15244 -19.495 0 0 0 0 0 0
9 1 C 1.008 -1.06423 -2.23075 -19.1699 0 0 0 0 0 0
25 6 C 12.011 -1.55882 -0.26924 -21.257 0 0 0 0 0 0
1093 12 C 15.999 -5.72865 -1.97103 -16.8044 0 0 0 0 0 0
1094 4 C 1.008 -6.59747 -2.42674 -16.7955 0 0 0 0 0 0
1095 4 C 1.008 -5.53345 -1.96081 -15.8434 0 0 0 0 0 0
1228 12 C 15.999 -3.34047 -3.26472 -16.2642 0 0 0 0 0 0
1229 4 C 1.008 -4.07572 -2.83165 -16.7333 0 0 0 0 0 0
1230 4 C 1.008 -3.56734 -3.01069 -15.3531 0 0 0 0 0 0
1437 4 C 1.008 -2.83407 -4.63022 -17.1844 0 0 0 0 0 0
23 3 C 1.008 2.57856 -1.63382 -21.6234 0 0 0 0 0 0
919 12 C 15.999 9.92203 -8.43626 -17.9845 0 0 0 -1 0 0
921 4 C 1.008 9.56781 -7.63937 -17.5719 0 0 0 -1 0 0
1032 4 C 1.008 9.72368 -1.39227 -16.7212 0 0 0 -1 0 0
13 8 C 12.011 0.326815 -2.70877 -21.4687 0 0 0 0 0 0
15 1 C 1.008 0.207439 -2.09212 -22.391 0 0 0 0 0 0
16 9 C 14.007 1.31642 -3.80969 -21.7073 0 0 0 0 0 0
17 3 C 1.008 0.991802 -4.76013 -21.727 0 0 0 0 0 0
18 5 C 12.011 2.62546 -3.62348 -21.6257 0 0 0 0 0 0
19 9 C 14.007 3.44486 -4.64533 -21.522 0 0 0 0 0 0
20 3 C 1.008 4.3996 -4.43418 -21.3339 0 0 0 0 0 0
21 3 C 1.008 3.0457 -5.55807 -21.3302 0 0 0 0 0 0
22 9 C 14.007 3.17285 -2.42762 -21.6029 0 0 0 0 0 0
24 3 C 1.008 4.16826 -2.38202 -21.4479 0 0 0 0 0 0
709 12 C 15.999 8.43701 -2.51297 -16.2552 0 0 0 0 0 0
710 4 C 1.008 7.72971 -2.21759 -15.6693 0 0 0 0 0 0
711 4 C 1.008 9.01809 -3.00561 -15.6359 0 0 0 0 0 0
871 12 C 15.999 7.27874 -1.91567 -18.8664 0 0 0 0 0 0
872 4 C 1.008 7.49081 -0.981413 -18.6571 0 0 0 0 0 0
873 4 C 1.008 7.64704 -2.33965 -18.0714 0 0 0 0 0 0
1031 4 C 1.008 9.8453 -0.166345 -17.5235 0 0 0 -1 0 0
1168 12 C 15.999 5.90435 -2.80694 -21.0954 0 0 0 0 0 0
1169 4 C 1.008 6.70755 -2.77713 -21.6256 0 0 0 0 0 0
1170 4 C 1.008 6.27348 -2.51615 -20.2255 0 0 0 0 0 0
1189 12 C 15.999 2.16006 -6.98581 -20.8781 0 0 0 0 0 0
1190 4 C 1.008 2.12812 -7.5696 -20.0877 0 0 0 0 0 0
1191 4 C 1.008 1.2292 -6.99994 -21.1697 0 0 0 0 0 0
1468 12 C 15.999 7.08301 -9.805 -17.196 0 0 0 0 0 0
1470 4 C 1.008 6.99959 -9.01043 -16.6351 0 0 0 0 0 0
1486 12 C 15.999 2.13064 -8.63611 -18.6402 0 0 0 0 0 0
1487 4 C 1.008 1.79886 -8.80492 -17.7375 0 0 0 0 0 0
1488 4 C 1.008 2.91723 -9.18803 -18.6541 0 0 0 0 0 0
14 1 C 1.008 0.701245 -2.06513 -20.6384 0 0 0 0 0 0
1450 12 C 15.999 1.76555 -9.45996 -15.9321 0 0 0 0 0 0
1451 4 C 1.008 2.60484 -9.08261 -15.5836 0 0 0 0 0 0
26 11 C 15.999 -1.97858 0.0907484 -22.3862 0 0 0 0 0 0
27 11 C 15.999 -0.439546 0.0603472 -20.7921 0 0 0 0 0 0
40 12 C 15.999 -3.99484 9.32231 -17.8024 0 0 0 0 0 0
41 4 C 1.008 -3.57302 8.67397 -18.3702 0 0 0 0 0 0
42 4 C 1.008 -3.2423 9.59045 -17.2287 0 0 0 0 0 0
64 12 C 15.999 -6.62286 5.42325 -15.3944 0 0 0 0 0 0
124 12 C 15.999 -6.4398 9.52437 -16.6276 0 0 0 0 0 0
125 4 C 1.008 -6.20325 9.1262 -15.7607 0 0 0 0 0 0
126 4 C 1.008 -5.57499 9.43454 -17.0932 0 0 0 0 0 0
373 12 C 15.999 -1.8619 9.76312 -16.1669 0 0 0 0 0 0
374 4 C 1.008 -0.915004 9.87931 -16.0347 0 0 0 0 0 0
375 4 C 1.008 -2.17088 9.51923 -15.272 0 0 0 0 0 0
616 12 C 15.999 -9.11026 6.40687 -15.8536 0 0 0 0 0 0
617 4 C 1.008 -9.39311 5.50841 -16.1166 0 0 0 0 0 0
618 4 C 1.008 -8.16891 6.19022 -15.6594 0 0 0 0 0 0
895 12 C 15.999 -8.90885 8.6795 -17.5203 0 0 0 0 0 0
896 4 C 1.008 -8.01095 9.00708 -17.3051 0 0 0 0 0 0
897 4 C 1.008 -8.89939 7.82478 -17.0537 0 0 0 0 0 0
1276 12 C 15.999 -8.69258 3.71387 -16.5263 0 0 0 0 0 0
1277 4 C 1.008 -8.52366 2.7878 -16.256 0 0 0 0 0 0
1278 4 C 1.008 -7.83625 4.12685 -16.3187 0 0 0 0 0 0
1498 12 C 15.999 -8.18327 1.10469 -15.6546 0 0 0 0 0 0
1499 4 C 1.008 -8.59559 0.413584 -16.2126 0 0 0 0 0 0
30 13 C 22.99 9.10954 9.3825 -18.0441 0 0 0 0 0 0
385 12 C 15.999 8.10874 0.540434 -17.8313 0 0 0 0 0 0
387 4 C 1.008 7.58616 0.750492 -17.0238 0 0 0 0 0 0
1358 4 C 1.008 8.816 9.40123 -15.2399 0 0 0 -1 -1 0
1469 4 C 1.008 6.55593 9.54347 -16.6702 0 0 0 0 -1 0
289 12 C 15.999 7.06042 5.71434 -16.7354 0 0 0 0 0 0
290 4 C 1.008 6.12645 5.87331 -16.5022 0 0 0 0 0 0
291 4 C 1.008 7.28402 4.97058 -16.1282 0 0 0 0 0 0
349 12 C 15.999 8.11991 5.24952 -19.2082 0 0 0 0 0 0
350 4 C 1.008 7.69936 5.41371 -18.3356 0 0 0 0 0 0
351 4 C 1.008 7.33657 5.12113 -19.7775 0 0 0 0 0 0
386 4 C 1.008 8.47632 1.43046 -18.0381 0 0 0 0 0 0
733 12 C 15.999 4.46253 6.55889 -16.0282 0 0 0 0 0 0
734 4 C 1.008 3.53228 6.86765 -15.9058 0 0 0 0 0 0
735 4 C 1.008 4.92492 7.39102 -15.7694 0 0 0 0 0 0
814 12 C 15.999 5.71196 5.10818 -20.6586 0 0 0 0 0 0
815 4 C 1.008 5.35627 4.27042 -20.9725 0 0 0 0 0 0
816 4 C 1.008 5.0899 5.30771 -19.9172 0 0 0 0 0 0
1042 12 C 15.999 8.56764 7.93735 -19.7261 0 0 0 0 0 0
1043 4 C 1.008 8.63847 6.97074 -19.5939 0 0 0 0 0 0
1044 4 C 1.008 7.96273 7.94579 -20.5003 0 0 0 0 0 0
1159 12 C 15.999 4.00742 5.47533 -18.5763 0 0 0 0 0 0
1160 4 C 1.008 4.23189 5.8686 -17.7108 0 0 0 0 0 0
1161 4 C 1.008 3.08653 5.23084 -18.4434 0 0 0 0 0 0
1204 12 C 15.999 8.71891 7.84383 -16.2295 0 0 0 0 0 0
1205 4 C 1.008 8.05404 7.14011 -16.3942 0 0 0 0 0 0
1381 12 C 15.999 9.34591 2.94935 -18.1834 0 0 0 0 0 0
1382 4 C 1.008 10.0874 3.29361 -17.65 0 0 0 0 0 0
1383 4 C 1.008 9.03643 3.75482 -18.6405 0 0 0 0 0 0
1417 12 C 15.999 6.76677 7.41392 -21.7232 0 0 0 0 0 0
1418 4 C 1.008 6.36208 6.59539 -21.3669 0 0 0 0 0 0
1513 12 C 15.999 6.83218 1.2764 -15.4862 0 0 0 0 0 0
1514 4 C 1.008 7.16248 2.1884 -15.3668 0 0 0 0 0 0
631 12 C 15.999 2.05849 7.75659 -15.6835 0 0 0 0 0 0
633 4 C 1.008 2.00318 8.65601 -16.0526 0 0 0 0 0 0
1206 4 C 1.008 9.50024 7.30069 -16.0028 0 0 0 0 0 0
115 12 C 15.999 -9.53374 -7.48767 -15.1942 0 0 0 0 0 0
154 12 C 15.999 -7.73786 -1.24466 -10.2618 0 0 0 0 0 0
155 4 C 1.008 -7.98907 -0.733855 -9.46585 0 0 0 0 0 0
156 4 C 1.008 -7.49964 -2.11488 -9.87825 0 0 0 0 0 0
217 12 C 15.999 -3.37382 -8.76399 -11.983 0 0 0 0 0 0
218 4 C 1.008 -4.20616 -9.22204 -11.7422 0 0 0 0 0 0
219 4 C 1.008 -3.09783 -9.29762 -12.7532 0 0 0 0 0 0
225 4 C 1.008 -9.90826 -6.4044 -13.9054 0 0 0 0 0 0
295 12 C 15.999 -7.17769 -7.37354 -8.53253 0 0 0 0 0 0
598 12 C 15.999 -8.98316 -1.52789 -12.7461 0 0 0 0 0 0
599 4 C 1.008 -8.71808 -1.49296 -11.8043 0 0 0 0 0 0
640 12 C 15.999 -7.94586 -9.02867 -10.5691 0 0 0 0 0 0
641 4 C 1.008 -7.71314 -8.32346 -9.92721 0 0 0 0 0 0
642 4 C 1.008 -8.7642 -8.66083 -10.9626 0 0 0 0 0 0
667 12 C 15.999 -2.70755 -3.67821 -10.3578 0 0 0 0 0 0
668 4 C 1.008 -1.76366 -3.76349 -10.6152 0 0 0 0 0 0
669 4 C 1.008 -2.99275 -4.60049 -10.5123 0 0 0 0 0 0
687 4 C 1.008 0.0209107 -5.88858 -8.14604 0 0 0 0 0 0
817 12 C 15.999 -3.71391 -6.15109 -11.1095 0 0 0 0 0 0
818 4 C 1.008 -3.5053 -7.05434 -11.4352 0 0 0 0 0 0
819 4 C 1.008 -4.22833 -5.78751 -11.8471 0 0 0 0 0 0
967 12 C 15.999 -6.34319 -0.478517 -12.566 0 0 0 0 0 0
968 4 C 1.008 -6.59341 -0.632742 -11.6315 0 0 0 0 0 0
969 4 C 1.008 -7.16093 -0.790897 -12.9912 0 0 0 0 0 0
1126 12 C 15.999 -2.22759 -1.49188 -8.69425 0 0 0 0 0 0
1127 4 C 1.008 -1.67914 -0.96642 -9.31636 0 0 0 0 0 0
1250 4 C 1.008 -6.47949 -9.82905 -11.1014 0 0 0 0 0 0
1297 12 C 15.999 -9.84876 -3.48368 -14.4917 0 0 0 0 0 0
1298 4 C 1.008 -9.5284 -2.83085 -13.8278 0 0 0 0 0 0
1299 4 C 1.008 -9.94436 -4.28596 -13.9354 0 0 0 0 0 0
1438 12 C 15.999 -4.98464 -2.30424 -14.1417 0 0 0 0 0 0
1439 4 C 1.008 -5.28762 -1.5188 -13.6462 0 0 0 0 0 0
1440 4 C 1.008 -5.05315 -2.96294 -13.4176 0 0 0 0 0 0
1477 12 C 15.999 -5.1989 -3.64965 -11.7402 0 0 0 0 0 0
1478 4 C 1.008 -5.92446 -3.64942 -11.0886 0 0 0 0 0 0
1479 4 C 1.008 -4.42987 -3.4136 -11.1891 0 0 0 0 0 0
1502 4 C 1.008 -0.60419 -9.22569 -8.64862 0 0 0 0 0 0
205 12 C 15.999 -0.107764 -4.28975 -10.9089 0 0 0 0 0 0
600 4 C 1.008 -9.32272 -0.617408 -12.8858 0 0 0 0 0 0
1481 4 C 1.008 -9.85973 -9.09989 -8.33914 0 0 0 1 0 0
478 12 C 15.999 -1.96666 -9.71163 -9.78375 0 0 0 0 1 0
479 4 C 1.008 -2.27019 -9.2412 -10.5857 0 0 0 0 1 0
1150 12 C 15.999 -4.4832 -9.05888 -8.779 0 0 0 0 1 0
1151 4 C 1.008 -3.55875 -9.32187 -8.9542 0 0 0 0 1 0
1152 4 C 1.008 -4.94179 -9.48638 -9.52119 0 0 0 0 1 0
297 4 C 1.008 -6.37581 -6.81773 -8.63514 0 0 0 0 0 0
571 12 C 15.999 -9.33042 -5.73489 -8.46267 0 0 0 0 0 0
572 4 C 1.008 -8.5471 -6.3255 -8.48923 0 0 0 0 0 0
649 12 C 15.999 -5.07348 -5.648 -8.79457 0 0 0 0 0 0
650 4 C 1.008 -4.39564 -5.81373 -8.12011 0 0 0 0 0 0
651 4 C 1.008 -4.57236 -5.86211 -9.61266 0 0 0 0 0 0
1128 4 C 1.008 -2.44228 -2.27045 -9.25157 0 0 0 0 0 0
1378 12 C 15.999 -7.08187 -3.87541 -9.55401 0 0 0 0 0 0
1379 4 C 1.008 -7.88482 -4.3755 -9.33412 0 0 0 0 0 0
1380 4 C 1.008 -6.38837 -4.43641 -9.14754 0 0 0 0 0 0
117 4 C 1.008 -10.0241 -8.32914 -15.0904 0 0 0 0 0 0
1357 12 C 15.999 9.17587 -9.80134 -14.7678 0 0 0 -1 0 0
517 12 C 15.999 4.19877 -8.6864 -14.8898 0 0 0 0 0 0
601 12 C 15.999 6.93816 -8.09265 -15.0075 0 0 0 0 0 0
602 4 C 1.008 7.00552 -7.37477 -14.3428 0 0 0 0 0 0
603 4 C 1.008 7.7161 -8.63685 -14.764 0 0 0 0 0 0
223 12 C 15.999 9.98628 -5.90075 -13.1096 0 0 0 -1 0 0
224 4 C 1.008 10.0924 -6.59401 -12.4273 0 0 0 -1 0 0
52 12 C 15.999 4.85861 -8.51546 -12.2564 0 0 0 0 0 0
53 4 C 1.008 4.7326 -8.61596 -11.2938 0 0 0 0 0 0
54 4 C 1.008 5.52343 -9.22146 -12.4195 0 0 0 0 0 0
206 4 C 1.008 0.306245 -4.86636 -11.5606 0 0 0 0 0 0
207 4 C 1.008 0.226478 -4.68133 -10.0682 0 0 0 0 0 0
253 12 C 15.999 7.21866 -7.17646 -10.3108 0 0 0 0 0 0
254 4 C 1.008 6.93504 -6.4768 -9.68674 0 0 0 0 0 0
255 4 C 1.008 6.50368 -7.82218 -10.1641 0 0 0 0 0 0
310 12 C 15.999 1.37102 -1.95011 -10.9139 0 0 0 0 0 0
311 4 C 1.008 0.823341 -1.16965 -10.7144 0 0 0 0 0 0
312 4 C 1.008 0.700995 -2.65659 -10.9423 0 0 0 0 0 0
382 12 C 15.999 7.7686 -3.29239 -8.93367 0 0 0 0 0 0
383 4 C 1.008 8.27189 -3.58979 -9.70092 0 0 0 0 0 0
384 4 C 1.008 7.26352 -4.10291 -8.7058 0 0 0 0 0 0
430 12 C 15.999 3.34358 -3.9 -10.5493 0 0 0 0 0 0
431 4 C 1.008 2.79336 -3.14768 -10.8617 0 0 0 0 0 0
432 4 C 1.008 3.75851 -4.22845 -11.376 0 0 0 0 0 0
518 4 C 1.008 4.23216 -8.54821 -13.9178 0 0 0 0 0 0
519 4 C 1.008 5.05688 -8.28253 -15.1324 0 0 0 0 0 0
580 12 C 15.999 4.58853 -5.61603 -12.3835 0 0 0 0 0 0
581 4 C 1.008 5.49852 -5.61129 -12.7338 0 0 0 0 0 0
582 4 C 1.008 4.44343 -6.57471 -12.3157 0 0 0 0 0 0
685 12 C 15.999 0.768082 -5.45861 -8.6176 0 0 0 0 0 0
766 12 C 15.999 9.71164 -8.06698 -11.338 0 0 0 0 0 0
767 4 C 1.008 8.92879 -7.74187 -10.8496 0 0 0 0 0 0
768 4 C 1.008 9.46356 -9.01061 -11.4509 0 0 0 0 0 0
769 12 C 15.999 3.02066 -6.54462 -9.74781 0 0 0 0 0 0
770 4 C 1.008 2.15833 -6.32934 -9.34192 0 0 0 0 0 0
771 4 C 1.008 3.2497 -5.67497 -10.1286 0 0 0 0 0 0
1102 12 C 15.999 5.83313 -1.2977 -8.65671 0 0 0 0 0 0
1103 4 C 1.008 5.14316 -1.97401 -8.50926 0 0 0 0 0 0
1104 4 C 1.008 6.5983 -1.8793 -8.84343 0 0 0 0 0 0
1162 12 C 15.999 7.25145 -6.25023 -12.9506 0 0 0 0 0 0
1163 4 C 1.008 8.1801 -5.95579 -13.0494 0 0 0 0 0 0
1164 4 C 1.008 7.26178 -6.6053 -12.0385 0 0 0 0 0 0
1177 12 C 15.999 4.79221 -8.53531 -9.49 0 0 0 0 0 0
1178 4 C 1.008 4.97923 -8.40312 -8.53974 0 0 0 0 0 0
1179 4 C 1.008 4.09247 -7.84135 -9.59746 0 0 0 0 0 0
1423 12 C 15.999 6.07916 -5.41893 -8.43467 0 0 0 0 0 0
1452 4 C 1.008 1.2971 -9.67465 -15.1022 0 0 0 0 0 0
1480 12 C 15.999 9.67902 -8.39914 -8.12688 0 0 0 0 0 0
1482 4 C 1.008 8.8573 -8.90041 -8.24833 0 0 0 0 0 0
573 4 C 1.008 -10.0275 -6.41542 -8.45985 0 0 0 0 0 0
1424 4 C 1.008 5.38336 -4.74599 -8.30549 0 0 0 0 0 0
1509 4 C 1.008 3.73934 -3.53633 -8.89827 0 0 0 0 0 0
65 4 C 1.008 -6.17499 4.62817 -15.0422 0 0 0 0 0 0
66 4 C 1.008 -6.07622 6.14896 -15.0311 0 0 0 0 0 0
508 12 C 15.999 -8.90972 8.61127 -14.0288 0 0 0 0 0 0
510 4 C 1.008 -9.00448 7.78376 -14.5283 0 0 0 0 0 0
1210 12 C 15.999 -6.10339 2.82423 -14.5123 0 0 0 0 0 0
1212 4 C 1.008 -6.4839 2.05983 -14.9837 0 0 0 0 0 0
1426 12 C 15.999 -2.71467 9.02921 -13.6234 0 0 0 0 0 0
1427 4 C 1.008 -3.61899 8.70134 -13.8417 0 0 0 0 0 0
1428 4 C 1.008 -2.52419 8.49445 -12.8262 0 0 0 0 0 0
1249 12 C 15.999 -5.58969 9.73949 -11.2103 0 0 0 0 -1 0
1261 12 C 15.999 -0.533894 0.126455 -10.2411 0 0 0 0 0 0
1262 4 C 1.008 -1.02013 0.65463 -10.9069 0 0 0 0 0 0
28 14 C 35.45 -5.76088 8.15715 -13.8832 0 0 0 0 0 0
166 12 C 15.999 -1.81966 3.77497 -9.5569 0 0 0 0 0 0
167 4 C 1.008 -1.00054 3.25257 -9.43179 0 0 0 0 0 0
168 4 C 1.008 -1.91911 4.12601 -8.64677 0 0 0 0 0 0
274 12 C 15.999 -8.25181 2.62572 -10.0762 0 0 0 0 0 0
275 4 C 1.008 -8.99183 3.2568 -9.94585 0 0 0 0 0 0
276 4 C 1.008 -8.08256 2.80057 -11.0226 0 0 0 0 0 0
398 4 C 1.008 -0.615526 9.13353 -13.6772 0 0 0 0 0 0
475 12 C 15.999 -4.52875 1.60317 -12.556 0 0 0 0 0 0
476 4 C 1.008 -4.83396 1.93486 -11.6783 0 0 0 0 0 0
477 4 C 1.008 -5.05512 0.778256 -12.6009 0 0 0 0 0 0
480 4 C 1.008 -1.91357 9.3528 -10.1128 0 0 0 0 0 0
502 12 C 15.999 -9.52722 6.96723 -10.5858 0 0 0 0 0 0
503 4 C 1.008 -8.94312 6.70247 -9.85066 0 0 0 0 0 0
504 4 C 1.008 -8.96296 6.74226 -11.352 0 0 0 0 0 0
505 12 C 15.999 -7.73217 5.84417 -8.66239 0 0 0 0 0 0
506 4 C 1.008 -7.254 5.13299 -8.18827 0 0 0 0 0 0
507 4 C 1.008 -6.99814 6.24774 -9.17386 0 0 0 0 0 0
509 4 C 1.008 -7.94111 8.65304 -13.9156 0 0 0 0 0 0
529 12 C 15.999 -3.39754 6.05266 -9.99607 0 0 0 0 0 0
530 4 C 1.008 -2.89838 5.20917 -10.0389 0 0 0 0 0 0
531 4 C 1.008 -2.73373 6.6784 -10.3399 0 0 0 0 0 0
532 12 C 15.999 -0.571112 5.55062 -12.1346 0 0 0 0 0 0
533 4 C 1.008 -0.275358 4.72578 -12.5618 0 0 0 0 0 0