ITEM: TIMESTEP
0
ITEM: NUMBER OF ATOMS
1835
ITEM: BOX BOUNDS pp pp pp
-1.0093999999999999e+01 1.0093999999999999e+01
-9.9900000000000002e+00 9.9900035801999998e+00
-3.6864073260000005e+01 2.0736999999999998e+01
ITEM: ATOMS id type xs ys zs
74 4 0.0395724 0.135902 0.00433786
75 4 0.0898434 0.0798753 0.00270318
1552 15 0.0959778 0.0917718 0.00278247
1553 15 0.196983 0.193829 0.00278247
1554 15 0.196983 0.0917718 0.0381829
1555 15 0.0959778 0.193829 0.0381829
1556 15 0.297989 0.0917718 0.00278247
1557 15 0.398994 0.193829 0.00278247
1558 15 0.398994 0.0917718 0.0381829
1559 15 0.297989 0.193829 0.0381829
1570 15 0.0959778 0.295886 0.00278247
1571 15 0.196983 0.397943 0.00278247
1572 15 0.196983 0.295886 0.0381829
1573 15 0.0959778 0.397943 0.0381829
1574 15 0.297989 0.295886 0.00278247
1575 15 0.398994 0.397943 0.00278247
1576 15 0.398994 0.295886 0.0381829
1577 15 0.297989 0.397943 0.0381829
1588 15 0.0959778 0.5 0.00278247
1590 15 0.196983 0.5 0.0381829
1592 15 0.297989 0.5 0.00278247
1594 15 0.398994 0.5 0.0381829
1633 15 0.0959778 0.0917718 0.0735832
1634 15 0.196983 0.193829 0.0735832
1635 15 0.196983 0.0917718 0.108984
1636 15 0.0959778 0.193829 0.108984
1637 15 0.297989 0.0917718 0.0735832
1638 15 0.398994 0.193829 0.0735832
1639 15 0.398994 0.0917718 0.108984
1640 15 0.297989 0.193829 0.108984
1651 15 0.0959778 0.295886 0.0735832
1652 15 0.196983 0.397943 0.0735832
1653 15 0.196983 0.295886 0.108984
1654 15 0.0959778 0.397943 0.108984
1655 15 0.297989 0.295886 0.0735832
1656 15 0.398994 0.397943 0.0735832
1657 15 0.398994 0.295886 0.108984
1658 15 0.297989 0.397943 0.108984
1669 15 0.0959778 0.5 0.0735832
1671 15 0.196983 0.5 0.108984
1673 15 0.297989 0.5 0.0735832
1675 15 0.398994 0.5 0.108984
413 4 0.609562 0.495004 0.006685
1404 4 0.891464 0.370112 0.00359231
1532 4 0.850512 0.0109271 0.0113138
1533 4 0.810598 0.0742413 0.0077421
1560 15 0.5 0.0917718 0.00278247
1561 15 0.601006 0.193829 0.00278247
1562 15 0.601006 0.0917718 0.0381829
1563 15 0.5 0.193829 0.0381829
1564 15 0.702011 0.0917718 0.00278247
1565 15 0.803017 0.193829 0.00278247
1566 15 0.803017 0.0917718 0.0381829
1567 15 0.702011 0.193829 0.0381829
1568 15 0.904022 0.0917718 0.00278247
1569 15 0.904022 0.193829 0.0381829
1578 15 0.5 0.295886 0.00278247
1579 15 0.601006 0.397943 0.00278247
1580 15 0.601006 0.295886 0.0381829
1581 15 0.5 0.397943 0.0381829
1582 15 0.702011 0.295886 0.00278247
1583 15 0.803017 0.397943 0.00278247
1584 15 0.803017 0.295886 0.0381829
1585 15 0.702011 0.397943 0.0381829
1586 15 0.904022 0.295886 0.00278247
1587 15 0.904022 0.397943 0.0381829
1596 15 0.5 0.5 0.00278247
1598 15 0.601006 0.5 0.0381829
1600 15 0.702011 0.5 0.00278247
1602 15 0.803017 0.5 0.0381829
1604 15 0.904022 0.5 0.00278247
1641 15 0.5 0.0917718 0.0735832
1642 15 0.601006 0.193829 0.0735832
1643 15 0.601006 0.0917718 0.108984
1644 15 0.5 0.193829 0.108984
1645 15 0.702011 0.0917718 0.0735832
1646 15 0.803017 0.193829 0.0735832
1647 15 0.803017 0.0917718 0.108984
1648 15 0.702011 0.193829 0.108984
1649 15 0.904022 0.0917718 0.0735832
1650 15 0.904022 0.193829 0.108984
1659 15 0.5 0.295886 0.0735832
1660 15 0.601006 0.397943 0.0735832
1661 15 0.601006 0.295886 0.108984
1662 15 0.5 0.397943 0.108984
1663 15 0.702011 0.295886 0.0735832
1664 15 0.803017 0.397943 0.0735832
1665 15 0.803017 0.295886 0.108984
1666 15 0.702011 0.397943 0.108984
1667 15 0.904022 0.295886 0.0735832
1668 15 0.904022 0.397943 0.108984
1677 15 0.5 0.5 0.0735832
1679 15 0.601006 0.5 0.108984
1681 15 0.702011 0.5 0.0735832
1683 15 0.803017 0.5 0.108984
1685 15 0.904022 0.5 0.0735832
163 12 0.356895 0.63964 0.000138886
164 4 0.333329 0.600347 0.00484755
1158 4 0.33167 0.956912 0.0121815
1589 15 0.196983 0.602057 0.00278247
1591 15 0.0959778 0.602057 0.0381829
1593 15 0.398994 0.602057 0.00278247
1595 15 0.297989 0.602057 0.0381829
1606 15 0.0959778 0.704114 0.00278247
1607 15 0.196983 0.806171 0.00278247
1608 15 0.196983 0.704114 0.0381829
1609 15 0.0959778 0.806171 0.0381829
1610 15 0.297989 0.704114 0.00278247
1611 15 0.398994 0.806171 0.00278247
1612 15 0.398994 0.704114 0.0381829
1613 15 0.297989 0.806171 0.0381829
1624 15 0.0959778 0.908228 0.00278247
1625 15 0.196983 0.908228 0.0381829
1626 15 0.297989 0.908228 0.00278247
1627 15 0.398994 0.908228 0.0381829
1670 15 0.196983 0.602057 0.0735832
1672 15 0.0959778 0.602057 0.108984
1674 15 0.398994 0.602057 0.0735832
1676 15 0.297989 0.602057 0.108984
1687 15 0.0959778 0.704114 0.0735832
1688 15 0.196983 0.806171 0.0735832
1689 15 0.196983 0.704114 0.108984
1690 15 0.0959778 0.806171 0.108984
1691 15 0.297989 0.704114 0.0735832
1692 15 0.398994 0.806171 0.0735832
1693 15 0.398994 0.704114 0.108984
1694 15 0.297989 0.806171 0.108984
1705 15 0.0959778 0.908228 0.0735832
1706 15 0.196983 0.908228 0.108984
1707 15 0.297989 0.908228 0.0735832
1708 15 0.398994 0.908228 0.108984
929 4 0.659249 0.888718 0.00827198
1597 15 0.601006 0.602057 0.00278247
1599 15 0.5 0.602057 0.0381829
1601 15 0.803017 0.602057 0.00278247
1603 15 0.702011 0.602057 0.0381829
1605 15 0.904022 0.602057 0.0381829
1614 15 0.5 0.704114 0.00278247
1615 15 0.601006 0.806171 0.00278247
1616 15 0.601006 0.704114 0.0381829
1617 15 0.5 0.806171 0.0381829
1618 15 0.702011 0.704114 0.00278247
1619 15 0.803017 0.806171 0.00278247
1620 15 0.803017 0.704114 0.0381829
1621 15 0.702011 0.806171 0.0381829
1622 15 0.904022 0.704114 0.00278247
1623 15 0.904022 0.806171 0.0381829
1628 15 0.5 0.908228 0.00278247
1629 15 0.601006 0.908228 0.0381829
1630 15 0.702011 0.908228 0.00278247
1631 15 0.803017 0.908228 0.0381829
1632 15 0.904022 0.908228 0.00278247
1678 15 0.601006 0.602057 0.0735832
1680 15 0.5 0.602057 0.108984
1682 15 0.803017 0.602057 0.0735832
1684 15 0.702011 0.602057 0.108984
1686 15 0.904022 0.602057 0.108984
1695 15 0.5 0.704114 0.0735832
1696 15 0.601006 0.806171 0.0735832
1697 15 0.601006 0.704114 0.108984
1698 15 0.5 0.806171 0.108984
1699 15 0.702011 0.704114 0.0735832
1700 15 0.803017 0.806171 0.0735832
1701 15 0.803017 0.704114 0.108984
1702 15 0.702011 0.806171 0.108984
1703 15 0.904022 0.704114 0.0735832
1704 15 0.904022 0.806171 0.108984
1709 15 0.5 0.908228 0.0735832
1710 15 0.601006 0.908228 0.108984
1711 15 0.702011 0.908228 0.0735832
1712 15 0.803017 0.908228 0.108984
1713 15 0.904022 0.908228 0.0735832
1714 15 0.0959778 0.0917718 0.144384
1715 15 0.196983 0.193829 0.144384
1716 15 0.196983 0.0917718 0.179784
1717 15 0.0959778 0.193829 0.179784
1718 15 0.297989 0.0917718 0.144384
1719 15 0.398994 0.193829 0.144384
1720 15 0.398994 0.0917718 0.179784
1721 15 0.297989 0.193829 0.179784
1732 15 0.0959778 0.295886 0.144384
1733 15 0.196983 0.397943 0.144384
1734 15 0.196983 0.295886 0.179784
1735 15 0.0959778 0.397943 0.179784
1736 15 0.297989 0.295886 0.144384
1737 15 0.398994 0.397943 0.144384
1738 15 0.398994 0.295886 0.179784
1739 15 0.297989 0.397943 0.179784
1750 15 0.0959778 0.5 0.144384
1752 15 0.196983 0.5 0.179784
1754 15 0.297989 0.5 0.144384
1756 15 0.398994 0.5 0.179784
1795 15 0.0959778 0.0917718 0.215185
1796 15 0.196983 0.193829 0.215185
1797 15 0.297989 0.0917718 0.215185
1798 15 0.398994 0.193829 0.215185
1804 15 0.0959778 0.295886 0.215185
1805 15 0.196983 0.397943 0.215185
1806 15 0.297989 0.295886 0.215185
1807 15 0.398994 0.397943 0.215185
1813 15 0.0959778 0.5 0.215185
1815 15 0.297989 0.5 0.215185
23 3 0.654375 0.475594 0.24476
1722 15 0.5 0.0917718 0.144384
1723 15 0.601006 0.193829 0.144384
1724 15 0.601006 0.0917718 0.179784
1725 15 0.5 0.193829 0.179784
1726 15 0.702011 0.0917718 0.144384
1727 15 0.803017 0.193829 0.144384
1728 15 0.803017 0.0917718 0.179784
1729 15 0.702011 0.193829 0.179784
1730 15 0.904022 0.0917718 0.144384
1731 15 0.904022 0.193829 0.179784
1740 15 0.5 0.295886 0.144384
1741 15 0.601006 0.397943 0.144384
1742 15 0.601006 0.295886 0.179784
1743 15 0.5 0.397943 0.179784
1744 15 0.702011 0.295886 0.144384
1745 15 0.803017 0.397943 0.144384
1746 15 0.803017 0.295886 0.179784
1747 15 0.702011 0.397943 0.179784
1748 15 0.904022 0.295886 0.144384
1749 15 0.904022 0.397943 0.179784
1758 15 0.5 0.5 0.144384
1760 15 0.601006 0.5 0.179784
1762 15 0.702011 0.5 0.144384
1764 15 0.803017 0.5 0.179784
1766 15 0.904022 0.5 0.144384
1799 15 0.5 0.0917718 0.215185
1800 15 0.601006 0.193829 0.215185
1801 15 0.702011 0.0917718 0.215185
1802 15 0.803017 0.193829 0.215185
1803 15 0.904022 0.0917718 0.215185
1808 15 0.5 0.295886 0.215185
1809 15 0.601006 0.397943 0.215185
1810 15 0.702011 0.295886 0.215185
1811 15 0.803017 0.397943 0.215185
1812 15 0.904022 0.295886 0.215185
1817 15 0.5 0.5 0.215185
1819 15 0.702011 0.5 0.215185
1821 15 0.904022 0.5 0.215185
1751 15 0.196983 0.602057 0.144384
1753 15 0.0959778 0.602057 0.179784
1755 15 0.398994 0.602057 0.144384
1757 15 0.297989 0.602057 0.179784
1768 15 0.0959778 0.704114 0.144384
1769 15 0.196983 0.806171 0.144384
1770 15 0.196983 0.704114 0.179784
1771 15 0.0959778 0.806171 0.179784
1772 15 0.297989 0.704114 0.144384
1773 15 0.398994 0.806171 0.144384
1774 15 0.398994 0.704114 0.179784
1775 15 0.297989 0.806171 0.179784
1786 15 0.0959778 0.908228 0.144384
1787 15 0.196983 0.908228 0.179784
1788 15 0.297989 0.908228 0.144384
1789 15 0.398994 0.908228 0.179784
1814 15 0.196983 0.602057 0.215185
1816 15 0.398994 0.602057 0.215185
1822 15 0.0959778 0.704114 0.215185
1823 15 0.196983 0.806171 0.215185
1824 15 0.297989 0.704114 0.215185
1825 15 0.398994 0.806171 0.215185
1831 15 0.0959778 0.908228 0.215185
1832 15 0.297989 0.908228 0.215185
1759 15 0.601006 0.602057 0.144384
1761 15 0.5 0.602057 0.179784
1763 15 0.803017 0.602057 0.144384
1765 15 0.702011 0.602057 0.179784
1767 15 0.904022 0.602057 0.179784
1776 15 0.5 0.704114 0.144384
1777 15 0.601006 0.806171 0.144384
1778 15 0.601006 0.704114 0.179784
1779 15 0.5 0.806171 0.179784
1780 15 0.702011 0.704114 0.144384
1781 15 0.803017 0.806171 0.144384
1782 15 0.803017 0.704114 0.179784
1783 15 0.702011 0.806171 0.179784
1784 15 0.904022 0.704114 0.144384
1785 15 0.904022 0.806171 0.179784
1790 15 0.5 0.908228 0.144384
1791 15 0.601006 0.908228 0.179784
1792 15 0.702011 0.908228 0.144384
1793 15 0.803017 0.908228 0.179784
1794 15 0.904022 0.908228 0.144384
1818 15 0.601006 0.602057 0.215185
1820 15 0.803017 0.602057 0.215185
1826 15 0.5 0.704114 0.215185
1827 15 0.601006 0.806171 0.215185
1828 15 0.702011 0.704114 0.215185
1829 15 0.803017 0.806171 0.215185
1830 15 0.904022 0.704114 0.215185
1833 15 0.5 0.908228 0.215185
1834 15 0.702011 0.908228 0.215185
1835 15 0.904022 0.908228 0.215185
1 10 0.357638 0.485986 0.307183
2 3 0.306435 0.488352 0.308992
3 3 0.37953 0.484161 0.323515
4 3 0.370305 0.443253 0.297879
10 8 0.467307 0.481331 0.270083
11 1 0.436095 0.489326 0.254448
12 1 0.453444 0.43289 0.278198
30 13 0.00133743 0.00195177 0.279475
115 12 0.0801962 0.118418 0.341488
116 4 0.0951752 0.0789554 0.333664
117 4 0.0429223 0.103829 0.350425
160 12 0.259213 0.141191 0.291246
161 4 0.276003 0.175626 0.301188
162 4 0.215464 0.132635 0.296923
493 12 0.221765 0.0142643 0.314058
494 4 0.245106 0.0536273 0.309283
495 4 0.180895 0.0159129 0.305653
919 12 0.116158 0.048999 0.2851
920 4 0.10792 0.00670029 0.277851
921 4 0.0840714 0.0785195 0.278405
937 12 0.342183 0.30981 0.28609
938 4 0.325075 0.266215 0.282694
939 4 0.330964 0.317184 0.302032
1030 12 0.0308104 0.354855 0.341662
1032 4 0.0418832 0.327051 0.354626
1045 12 0.128145 0.272923 0.351106
1046 4 0.0899073 0.296885 0.345865
1047 4 0.126443 0.231261 0.342923
1144 12 0.485536 0.0901401 0.292409
1145 4 0.439131 0.0892206 0.289013
1146 4 0.490698 0.126841 0.302936
1330 12 0.170101 0.366617 0.305621
1331 4 0.13032 0.366514 0.314663
1332 4 0.197146 0.332687 0.312533
1357 12 0.00757876 0.0451952 0.354717
1387 12 0.180652 0.16972 0.31852
1388 4 0.14802 0.181579 0.329852
1389 4 0.16003 0.13545 0.309431
1435 12 0.309441 0.184384 0.365602
1436 4 0.306313 0.140378 0.372079
1447 12 0.270953 0.23048 0.323572
1448 4 0.247317 0.196583 0.315248
1449 4 0.240767 0.244851 0.335377
13 8 0.539875 0.478178 0.26267
15 1 0.547291 0.436328 0.25024
16 9 0.582524 0.466767 0.282392
17 3 0.561871 0.46229 0.298088
18 5 0.651773 0.461662 0.280534
19 9 0.690905 0.450651 0.30003
20 3 0.736774 0.432478 0.298235
21 3 0.673178 0.460905 0.315846
22 9 0.68194 0.467668 0.25892
24 3 0.731189 0.464059 0.257543
83 4 0.705259 0.00959388 0.373853
385 12 0.961908 0.468218 0.317721
387 4 0.936387 0.470627 0.331701
517 12 0.792649 0.023974 0.367928
601 12 0.9415 0.114464 0.358328
602 4 0.933341 0.117987 0.374652
603 4 0.937825 0.0676291 0.355077
709 12 0.958143 0.220571 0.349839
710 4 0.923597 0.187771 0.349505
711 4 0.995762 0.197153 0.355867
871 12 0.882504 0.318919 0.332808
872 4 0.92081 0.346812 0.33129
873 4 0.899103 0.277857 0.339088
1031 4 0.990197 0.376079 0.346059
1168 12 0.771151 0.314214 0.280135
1169 4 0.749576 0.281616 0.289681
1170 4 0.807982 0.329123 0.289233
1189 12 0.600902 0.128529 0.310864
1190 4 0.628766 0.106314 0.321882
1191 4 0.564334 0.0986782 0.308698
1358 4 0.984309 0.00596651 0.349769
1359 4 0.992823 0.0524567 0.370307
1468 12 0.95537 0.0121121 0.309475
1469 4 0.915771 0.00144359 0.317832
1470 4 0.975331 0.0474667 0.318239
1486 12 0.681543 0.0644645 0.342703
1487 4 0.655767 0.0347651 0.352106
1488 4 0.725835 0.0595382 0.348383
5 7 0.381068 0.545245 0.29477
6 2 0.375152 0.587663 0.306201
7 8 0.453933 0.538038 0.287496
8 1 0.483924 0.528573 0.303317
9 1 0.47016 0.585931 0.279544
25 6 0.335942 0.556607 0.274059
26 11 0.288762 0.516302 0.270957
27 11 0.347956 0.605765 0.26102
40 12 0.343769 0.898498 0.301905
41 4 0.381268 0.906475 0.29212
42 4 0.362298 0.881861 0.316071
64 12 0.15643 0.71026 0.356054
65 4 0.141565 0.665821 0.359431
66 4 0.194574 0.716277 0.365701
124 12 0.22657 0.883884 0.322964
125 4 0.193764 0.854615 0.31657
126 4 0.263267 0.880541 0.312505
373 12 0.41698 0.847147 0.344596
374 4 0.448838 0.817681 0.351452
375 4 0.400106 0.872708 0.357345
508 12 0.0575094 0.873273 0.374769
510 4 0.0545611 0.836404 0.364208
616 12 0.0533981 0.753203 0.319961
617 4 0.03301 0.709968 0.32039
618 4 0.089254 0.750144 0.330782
895 12 0.0779176 0.887788 0.307357
896 4 0.12361 0.891358 0.311619
897 4 0.0661058 0.842738 0.311208
1210 12 0.134139 0.592592 0.369769
1212 4 0.104611 0.555184 0.368945
1276 12 0.0202596 0.590741 0.343762
1277 4 0.00548556 0.551976 0.352041
1278 4 0.0624167 0.601085 0.350468
1426 12 0.302259 0.969419 0.346505
1427 4 0.311326 0.94523 0.332518
1428 4 0.258246 0.956287 0.350683
14 1 0.554696 0.526322 0.254539
289 12 0.885823 0.761461 0.357113
290 4 0.871908 0.807249 0.357449
291 4 0.847163 0.736637 0.361403
349 12 0.831534 0.72988 0.284006
350 4 0.833443 0.698512 0.296549
351 4 0.788726 0.7501 0.285371
386 4 0.960507 0.512658 0.311533
448 12 0.881415 0.645545 0.360099
449 4 0.88489 0.691893 0.356073
733 12 0.755895 0.846747 0.367807
734 4 0.710275 0.851996 0.371954
735 4 0.772497 0.891513 0.366727
814 12 0.706707 0.766316 0.297305
815 4 0.663005 0.747989 0.29837
816 4 0.702231 0.811277 0.302824
1042 12 0.94898 0.924624 0.29918
1043 4 0.956965 0.920568 0.3155
1044 4 0.901791 0.922636 0.297714
1159 12 0.622647 0.744544 0.353363
1160 4 0.669688 0.750044 0.352529
1161 4 0.607396 0.783354 0.361509
1204 12 0.955667 0.907958 0.361401
1205 4 0.935182 0.866408 0.357291
1381 12 0.943531 0.619119 0.304371
1382 4 0.961209 0.663378 0.302929
1383 4 0.898589 0.623058 0.299254
1417 12 0.773628 0.912963 0.309371
1418 4 0.76991 0.867319 0.304493
1419 4 0.729514 0.925427 0.313662
1513 12 0.883941 0.531331 0.351679
1514 4 0.899197 0.575898 0.348748
1515 4 0.852529 0.536139 0.364014
154 12 0.0383396 0.408258 0.479176
155 4 0.0365338 0.42448 0.4948
156 4 0.0695253 0.372202 0.479692
217 12 0.179612 0.181632 0.437372
218 4 0.197788 0.138561 0.440889
219 4 0.212539 0.212697 0.442554
223 12 0.0734099 0.188789 0.38772
224 4 0.0601656 0.155639 0.398782
225 4 0.105969 0.166847 0.378339
295 12 0.119675 0.0847848 0.497006
598 12 0.0266 0.376076 0.428309
599 4 0.0444651 0.408723 0.438735
640 12 0.101942 0.0313313 0.461034
641 4 0.124714 0.0512972 0.473859
642 4 0.056035 0.0346283 0.465031
667 12 0.382901 0.365115 0.43975
668 4 0.427589 0.365083 0.445303
669 4 0.363475 0.325924 0.446458
682 12 0.411532 0.200851 0.489332
683 4 0.369227 0.182026 0.493031
687 4 0.483986 0.234041 0.486839
817 12 0.300971 0.247247 0.457007
818 4 0.263183 0.224618 0.463262
819 4 0.326639 0.259498 0.470317
967 12 0.152566 0.422773 0.43258
968 4 0.140513 0.465214 0.439028
969 4 0.111263 0.400324 0.430136
1093 12 0.228353 0.31016 0.383449
1094 4 0.182384 0.308749 0.379407
1095 4 0.229339 0.331625 0.398301
1126 12 0.439865 0.35981 0.497579
1127 4 0.417612 0.318665 0.494167
1228 12 0.367644 0.294945 0.391817
1229 4 0.321174 0.300021 0.389025
1230 4 0.37976 0.334085 0.400407
1249 12 0.237715 0.0210711 0.448864
1250 4 0.192566 0.0324329 0.452061
1261 12 0.493759 0.475676 0.45317
1262 4 0.491582 0.435042 0.46194
1297 12 0.0186249 0.282282 0.393761
1298 4 0.0284281 0.30919 0.407074
1299 4 0.0483082 0.245075 0.394924
1437 4 0.329982 0.210545 0.377518
1438 12 0.242768 0.365215 0.422337
1439 4 0.213664 0.392785 0.431318
1440 4 0.282094 0.3618 0.431544
1477 12 0.258173 0.385586 0.488638
1478 4 0.228197 0.361096 0.498313
1479 4 0.292799 0.399535 0.498908
1498 12 0.0679612 0.479279 0.388605
1499 4 0.0490257 0.43699 0.39272
1502 4 0.378368 0.0364639 0.496726
1503 4 0.437285 0.0830832 0.498425
52 12 0.742223 0.0544044 0.410914
53 4 0.7305 0.0822251 0.423803
54 4 0.728384 0.0104541 0.41541
205 12 0.543045 0.2505 0.44192
206 4 0.55379 0.205034 0.44556
207 4 0.530102 0.269703 0.456453
253 12 0.825243 0.137337 0.459923
254 4 0.813537 0.172068 0.470609
255 4 0.806261 0.0976289 0.466418
310 12 0.563949 0.386036 0.416382
311 4 0.542933 0.415745 0.427139
312 4 0.559307 0.342659 0.423247
382 12 0.88934 0.296847 0.474159
383 4 0.887226 0.327632 0.48687
384 4 0.855643 0.264505 0.477448
430 12 0.716762 0.297848 0.440809
431 4 0.711622 0.317784 0.455812
432 4 0.738974 0.256384 0.443758
518 4 0.762376 0.0391108 0.379591
519 4 0.830992 0.00995048 0.376408
580 12 0.766644 0.17983 0.409664
581 4 0.812942 0.179405 0.413245
582 4 0.753946 0.133675 0.409838
600 4 0.980612 0.373643 0.432265
685 12 0.523331 0.250601 0.479558
686 4 0.550166 0.26623 0.49214
766 12 0.94893 0.0444444 0.44251
767 4 0.935603 0.0832898 0.451041
768 4 0.960786 0.0124931 0.454175
769 12 0.575738 0.123874 0.446764
770 4 0.606036 0.0904499 0.452147
771 4 0.595901 0.165456 0.451026
828 4 0.738137 0.489073 0.425285
1102 12 0.804884 0.433283 0.479419
1103 4 0.770741 0.406168 0.48609
1104 4 0.842434 0.426395 0.48928
1162 12 0.901476 0.175626 0.420167
1163 4 0.936422 0.1673 0.431021
1164 4 0.861737 0.166546 0.428667
1177 12 0.70002 0.0618118 0.469645
1178 4 0.718273 0.0909569 0.481179
1179 4 0.660934 0.0438644 0.476698
1423 12 0.781157 0.219019 0.494627
1450 12 0.582821 0.0167167 0.392598
1451 4 0.619906 0.0231533 0.402709
1452 4 0.547675 0.00279047 0.402652
1480 12 0.95745 0.0254254 0.48001
1481 4 0.979227 0.00391633 0.492747
1482 4 0.922652 0.050861 0.48705
28 14 0.202744 0.873273 0.392077
166 12 0.415841 0.641041 0.469767
167 4 0.446191 0.605431 0.472997
168 4 0.425174 0.674058 0.481355
256 12 0.230731 0.571271 0.49494
257 4 0.261059 0.53643 0.490804
274 12 0.0478502 0.659509 0.462684
275 4 0.0598768 0.684693 0.476177
276 4 0.0821406 0.668933 0.451682
398 4 0.498501 0.915002 0.426856
475 12 0.237418 0.583333 0.424559
476 4 0.194842 0.578501 0.431677
477 4 0.257952 0.540486 0.42642
478 12 0.34996 0.990791 0.452979
479 4 0.320747 0.95752 0.459154
480 4 0.390988 0.983563 0.460923
502 12 0.0918863 0.866316 0.446729
503 4 0.0877069 0.830945 0.457841
504 4 0.136348 0.862543 0.441107
505 12 0.155786 0.745595 0.472805
506 4 0.128323 0.71003 0.478401
507 4 0.186263 0.753958 0.4852
509 4 0.0504238 0.8538 0.389747
529 12 0.32336 0.746496 0.441503
530 4 0.325655 0.703008 0.434579
531 4 0.362904 0.768549 0.436448
532 12 0.443481 0.74054 0.415341
533 4 0.456894 0.697574 0.40969
534 4 0.466589 0.74555 0.429747
673 12 0.34996 0.888588 0.484454
674 4 0.324155 0.853951 0.491525
675 4 0.392646 0.884805 0.491568
727 12 0.155043 0.54024 0.458222
728 4 0.187451 0.554107 0.469357
729 4 0.119594 0.522374 0.467354
799 12 0.213295 0.848148 0.433708
800 4 0.199344 0.8659 0.448348
801 4 0.260651 0.848094 0.43453
867 4 0.008177 0.720932 0.477148
901 12 0.0333366 0.597597 0.4214
902 4 0.0727949 0.624161 0.421348
903 4 0.0148484 0.604219 0.436529
979 12 0.423519 0.837938 0.433969
980 4 0.453422 0.86751 0.441785
981 4 0.451004 0.802379 0.428381
1150 12 0.236081 0.97057 0.495548
1151 4 0.279087 0.950463 0.494984
1152 4 0.21095 0.946988 0.484073
1211 4 0.168643 0.578293 0.380031
1231 12 0.237914 0.889239 0.468638
1232 4 0.257594 0.845801 0.469886
1233 4 0.24673 0.910059 0.483282
1251 4 0.241497 0.975146 0.453406
1252 12 0.492966 0.558008 0.417042
1253 4 0.457326 0.54352 0.426782
1255 12 0.154944 0.684685 0.425375
1256 4 0.160257 0.698815 0.441144
1257 4 0.184115 0.647184 0.423821
1294 12 0.0158015 0.797748 0.491676
1295 4 0.0617454 0.787041 0.489925
1453 12 0.348128 0.620771 0.403136
1454 4 0.366726 0.659016 0.41073
1455 4 0.308982 0.610781 0.411849
1494 4 0.489041 0.694956 0.459459
1500 4 0.0524923 0.509436 0.400324
82 12 0.676541 0.972022 0.376088
84 4 0.695652 0.948093 0.388831
277 12 0.748762 0.642492 0.490617
301 12 0.775609 0.964564 0.40824
302 4 0.815413 0.961988 0.417225
303 4 0.740757 0.964778 0.419507
322 12 0.711413 0.530731 0.454298
323 4 0.689515 0.555941 0.466163
324 4 0.740065 0.500937 0.462575
343 12 0.704973 0.767768 0.447771
344 4 0.744253 0.794427 0.446713
345 4 0.68627 0.779178 0.462519
361 12 0.516693 0.576226 0.493395
363 4 0.560424 0.558802 0.495565
397 12 0.503715 0.934685 0.411817
399 4 0.539193 0.96602 0.413658
442 12 0.762483 0.677978 0.381661
443 4 0.745479 0.718953 0.375446
444 4 0.730547 0.664772 0.393058
450 4 0.871587 0.645619 0.376356
490 12 0.674064 0.964715 0.445496
491 4 0.717065 0.944955 0.446923
492 4 0.653354 0.956633 0.46018
619 12 0.945066 0.725876 0.409126
620 4 0.920598 0.76407 0.41433
621 4 0.966099 0.709047 0.422827
631 12 0.610511 0.885635 0.381227
632 4 0.587843 0.918449 0.390364
633 4 0.648294 0.90874 0.375179
646 12 0.915544 0.576727 0.49718
679 12 0.818506 0.832632 0.43751
680 4 0.800745 0.82649 0.45277
681 4 0.858583 0.857292 0.439897
826 12 0.73083 0.503804 0.409681
827 4 0.706755 0.544816 0.411287
841 12 0.666634 0.917617 0.489367
842 4 0.711094 0.925683 0.494418
865 12 0.981672 0.723373 0.463395
866 4 0.937265 0.728168 0.468976
892 12 0.893947 0.969669 0.445097
893 4 0.870556 0.929895 0.440785
894 4 0.902676 0.964275 0.461323
904 12 0.636021 0.665215 0.416678
905 4 0.663558 0.697232 0.424402
906 4 0.598307 0.660439 0.426611
943 12 0.522786 0.91031 0.454663
944 4 0.558084 0.937582 0.46046
945 4 0.508888 0.884419 0.467769
1206 4 0.958879 0.906565 0.377973
1222 12 0.826332 0.8498 0.480096
1223 4 0.792562 0.81623 0.479407
1224 4 0.832618 0.857714 0.496337
1254 4 0.531214 0.535866 0.423163
1263 4 0.500902 0.509849 0.464544
1405 12 0.90212 0.925826 0.488308
1406 4 0.872057 0.889223 0.490293
1492 12 0.51382 0.723573 0.449351
1493 4 0.554358 0.731744 0.45749
100 12 0.338122 0.0271271 0.619972
172 12 0.100902 0.311562 0.577872
173 4 0.0573946 0.306478 0.584239
174 4 0.120997 0.345732 0.587149
214 12 0.00678621 0.328679 0.602438
216 4 0.0165059 0.335602 0.618525
241 12 0.211859 0.495996 0.550824
242 4 0.247903 0.493577 0.561588
243 4 0.182559 0.460817 0.555493
296 4 0.150661 0.0849805 0.509584
297 4 0.0869979 0.117184 0.501329
307 12 0.300426 0.0947948 0.577247
308 4 0.302044 0.114656 0.592359
309 4 0.32674 0.0551307 0.578592
355 12 0.317565 0.353904 0.537977
356 4 0.340715 0.37198 0.551054
357 4 0.294506 0.315849 0.544027
466 12 0.223004 0.0449449 0.540755
467 4 0.200954 0.0162889 0.551601
468 4 0.254511 0.0691027 0.54992
484 12 0.466713 0.36982 0.566709
485 4 0.47105 0.408023 0.576621
486 4 0.426749 0.348523 0.571749
571 12 0.0186249 0.178278 0.506763
572 4 0.0428919 0.209352 0.516124
573 4 0.0117623 0.140436 0.516665
586 12 0.313701 0.141191 0.622681
587 4 0.320078 0.0977293 0.616056
604 12 0.16703 0.167668 0.622299
605 4 0.161543 0.146489 0.607518
649 12 0.265554 0.218418 0.505756
650 4 0.250861 0.234334 0.52056
651 4 0.276703 0.172473 0.508381
658 12 0.346741 0.00215215 0.564227
659 4 0.31203 0.0347203 0.563495
660 4 0.37472 0.0172356 0.576581
684 4 0.427085 0.219173 0.503687
730 12 0.245393 0.428128 0.598167
731 4 0.289787 0.41356 0.601087
732 4 0.218448 0.399386 0.607525
781 12 0.0284823 0.169419 0.61058
782 4 0.0299905 0.195044 0.596549
785 4 0.0170814 0.428171 0.56575
793 12 0.11809 0.431982 0.54822
794 4 0.0785108 0.406111 0.550009
795 4 0.129269 0.445635 0.56366
823 12 0.0277888 0.110861 0.544488
824 4 0.0468699 0.117526 0.559524
825 4 0.00846954 0.0671618 0.545225
886 12 0.146721 0.0841341 0.587785
887 4 0.1868 0.104982 0.592937
888 4 0.113465 0.100423 0.598196
910 12 0.234892 0.234134 0.543811
911 4 0.199406 0.252829 0.552722
912 4 0.265504 0.217733 0.555154
934 12 0.230384 0.235936 0.584695
935 4 0.239199 0.249079 0.600374
936 4 0.199548 0.199756 0.586058
1012 12 0.419754 0.238989 0.536137
1013 4 0.432653 0.198152 0.543558
1014 4 0.416569 0.270762 0.548524
1060 12 0.283634 0.116817 0.521103
1061 4 0.239961 0.134347 0.523313
1062 4 0.2828 0.0740361 0.528577
1087 12 0.304983 0.293894 0.62301
1128 4 0.405651 0.388863 0.503128
1240 12 0.443432 0.212813 0.581744
1241 4 0.477328 0.185554 0.588498
1242 4 0.418853 0.229459 0.594729
1306 12 0.124827 0.454755 0.59407
1307 4 0.169016 0.442019 0.589974
1308 4 0.12674 0.462996 0.610426
1315 12 0.346344 0.328779 0.588619
1316 4 0.3809 0.326906 0.599979
1317 4 0.307458 0.314687 0.596774
1333 12 0.348672 0.425075 0.510947
1334 4 0.32367 0.39106 0.518703
1335 4 0.383134 0.436432 0.521659
1378 12 0.14256 0.307007 0.502214
1379 4 0.110068 0.275038 0.507062
1380 4 0.183631 0.283129 0.502801
1489 12 0.0796017 0.219019 0.546415
1490 4 0.0844453 0.248996 0.559266
1491 4 0.0562445 0.181418 0.552662
1501 12 0.424708 0.0371872 0.500235
43 12 0.829899 0.434685 0.586414
44 4 0.850235 0.456504 0.599378
45 4 0.803581 0.399937 0.593181
171 4 0.561713 0.477956 0.581081
194 4 0.860155 0.495187 0.562602
215 4 0.959505 0.33109 0.601518
229 12 0.887359 0.394344 0.512231
230 4 0.873609 0.353775 0.519641
231 4 0.927814 0.40613 0.519873
244 12 0.582326 0.22002 0.567369
245 4 0.615699 0.202165 0.577418
246 4 0.541671 0.202045 0.573221
250 12 0.904993 0.31041 0.539939
251 4 0.906759 0.271697 0.549709
252 4 0.935027 0.341436 0.546977
299 4 0.970099 0.00363738 0.612682
340 12 0.822568 0.28023 0.583567
341 4 0.831427 0.23468 0.587674
342 4 0.851064 0.305906 0.59342
496 12 0.671389 0.432933 0.522873
497 4 0.643589 0.468155 0.528525
498 4 0.706088 0.429534 0.534137
590 4 0.759981 0.484876 0.537254
610 12 0.660244 0.153153 0.602299
611 4 0.707533 0.149687 0.602208
612 4 0.65135 0.193469 0.610718
712 12 0.528383 0.144494 0.598671
713 4 0.509731 0.116023 0.610327
714 4 0.574551 0.133583 0.598599
761 4 0.544791 0.494679 0.544428
783 4 0.982543 0.159194 0.612661
784 12 0.987171 0.396747 0.558862
786 4 0.948305 0.422384 0.555469
790 12 0.725877 0.205005 0.537734
791 4 0.699357 0.184058 0.549437
792 4 0.743951 0.243732 0.545189
820 12 0.693035 0.0558058 0.582126
821 4 0.671104 0.097194 0.585437
822 4 0.719227 0.0470832 0.595644
859 12 0.689023 0.435185 0.599435
860 4 0.724811 0.437105 0.610315
861 4 0.654113 0.413038 0.607646
862 12 0.937141 0.111762 0.605737
863 4 0.966195 0.0948224 0.617481
864 4 0.896491 0.120584 0.613725
970 12 0.99995 0.28964 0.603914
971 4 0.981601 0.327571 0.611767
972 4 0.982379 0.251808 0.612039
973 12 0.534575 0.273674 0.613306
974 4 0.550455 0.264074 0.598006
975 4 0.520243 0.23129 0.619203
1009 12 0.950614 0.437037 0.62466
1057 12 0.816525 0.165866 0.583602
1058 4 0.799734 0.121682 0.581025
1059 4 0.858238 0.159053 0.59114
1099 12 0.646424 0.0129129 0.532995
1100 4 0.689964 0.00215638 0.538414
1129 12 0.539182 0.33023 0.534783
1130 4 0.505747 0.347122 0.545006
1131 4 0.575163 0.31846 0.544806
1165 12 0.752427 0.346096 0.556796
1166 4 0.76947 0.386656 0.563318
1167 4 0.774438 0.311245 0.565193
1258 12 0.705221 0.485035 0.55888
1260 4 0.676265 0.46736 0.570523
1339 12 0.563949 0.0905906 0.507683
1340 4 0.518924 0.0759521 0.508844
1341 4 0.588237 0.0599013 0.517189
1354 12 0.69472 0.113714 0.509402
1355 4 0.66681 0.081976 0.5171
1356 4 0.704499 0.146497 0.521024
1424 4 0.770651 0.259068 0.502971
1425 4 0.76798 0.183527 0.504789
1507 12 0.708936 0.352402 0.500357
1508 4 0.704463 0.395645 0.507335
1509 4 0.675743 0.325662 0.507758
37 12 0.375817 0.663814 0.518637
38 4 0.419639 0.646181 0.520327
39 4 0.347837 0.631197 0.525847
70 12 0.0880721 0.938338 0.505981
71 4 0.131292 0.919392 0.507854
72 4 0.0614634 0.916094 0.517368
88 12 0.0190212 0.867467 0.540391
89 4 0.00272813 0.839582 0.552637
90 4 0.0649457 0.856118 0.539133
101 4 0.347477 0.981576 0.616004
127 12 0.488904 0.905706 0.624538
145 12 0.0919853 0.545145 0.514072
146 4 0.0753149 0.500728 0.516225
147 4 0.123837 0.550793 0.526224
258 4 0.249279 0.590728 0.508664
268 12 0.251387 0.705155 0.604105
269 4 0.243661 0.717397 0.619941
270 4 0.297607 0.694624 0.603482
362 4 0.493841 0.565244 0.507448
424 12 0.343075 0.874024 0.543255
425 4 0.38453 0.878647 0.55116