LAMMPS data file via write_data, version 29 Sep 2021, timestep = 100000

1835 atoms
15 atom types
1040 bonds
12 bond types
552 angles
23 angle types
62 dihedrals
20 dihedral types
4 impropers
3 improper types

-10.094 10.094 xlo xhi
-9.99 9.9900035802 ylo yhi
-33.260936570991895 17.133863310708207 zlo zhi

Masses

1 1.008
2 1.008
3 1.008
4 1.008
5 12.011
6 12.011
7 12.011
8 12.011
9 14.007
10 14.007
11 15.999
12 15.999
13 22.99
14 35.45
15 197

PairIJ Coeffs # lj/charmmfsw/coul/long

1 1 0.034 2.38761 0.034 2.38761
1 2 0.0273496 2.36979 0.0273496 2.36979
1 3 0.0395474 1.39381 0.0395474 1.39381
1 4 0.0395474 1.39381 0.0395474 1.39381
1 5 0.0611555 2.9756 0.0611555 2.9756
1 6 0.0487852 2.9756 0.0487852 2.9756
1 7 0.0329848 2.9756 0.0184391 2.88651
1 8 0.0436348 2.98451 0.0184391 2.88651
1 9 0.0824621 2.84197 0.0824621 2.84197
1 10 0.0824621 2.84197 0.0824621 2.84197
1 11 0.0638749 2.70833 0.0638749 2.70833
1 12 0.0719124 2.76909 0.0719124 2.76909
1 13 0.0399324 2.45064 0.0399324 2.45064
1 14 0.0714143 3.21614 0.0714143 3.21614
1 15 0.424099 2.5083 0.424099 2.5083
2 2 0.022 2.35197 0.022 2.35197
2 3 0.0318119 1.37599 0.0318119 1.37599
2 4 0.0318119 1.37599 0.0318119 1.37599
2 5 0.0491935 2.95778 0.0491935 2.95778
2 6 0.0392428 2.95778 0.0392428 2.95778
2 7 0.026533 2.95778 0.0148324 2.86869
2 8 0.0350999 2.96669 0.0148324 2.86869
2 9 0.0663325 2.82415 0.0663325 2.82415
2 10 0.0663325 2.82415 0.0663325 2.82415
2 11 0.0513809 2.69051 0.0513809 2.69051
2 12 0.0578463 2.75127 0.0578463 2.75127
2 13 0.0321216 2.43282 0.0321216 2.43282
2 14 0.0574456 3.19833 0.0574456 3.19833
2 15 0.341145 2.49049 0.341145 2.49049
3 3 0.046 0.400014 0.046 0.400014
3 4 0.046 0.400014 0.046 0.400014
3 5 0.0711337 1.9818 0.0711337 1.9818
3 6 0.056745 1.9818 0.056745 1.9818
3 7 0.0383667 1.9818 0.0214476 1.89271
3 8 0.0507543 1.99071 0.0214476 1.89271
3 9 0.0959166 1.84817 0.0959166 1.84817
3 10 0.0959166 1.84817 0.0959166 1.84817
3 11 0.0742967 1.71453 0.0742967 1.71453
3 12 0.0836457 1.77529 0.0836457 1.77529
3 13 0.0464478 1.45684 0.0464478 1.45684
3 14 0.0830662 2.22235 0.0830662 2.22235
3 15 0.493295 1.51451 0.493295 1.51451
4 4 0.046 0.400014 0.046 0.400014
4 5 0.0711337 1.9818 0.0711337 1.9818
4 6 0.056745 1.9818 0.056745 1.9818
4 7 0.0383667 1.9818 0.0214476 1.89271
4 8 0.0507543 1.99071 0.0214476 1.89271
4 9 0.0959166 1.84817 0.0959166 1.84817
4 10 0.0959166 1.84817 0.0959166 1.84817
4 11 0.0742967 1.71453 0.0742967 1.71453
4 12 0.0836457 1.77529 0.0836457 1.77529
4 13 0.0464478 1.45684 0.0464478 1.45684
4 14 0.0830662 2.22235 0.0830662 2.22235
4 15 0.493295 1.51451 0.493295 1.51451
5 5 0.11 3.56359 0.11 3.56359
5 6 0.0877496 3.56359 0.0877496 3.56359
5 7 0.0593296 3.56359 0.0331662 3.47451
5 8 0.0784857 3.5725 0.0331662 3.47451
5 9 0.148324 3.42996 0.148324 3.42996
5 10 0.148324 3.42996 0.148324 3.42996
5 11 0.114891 3.29633 0.114891 3.29633
5 12 0.129348 3.35708 0.129348 3.35708
5 13 0.0718262 3.03863 0.0718262 3.03863
5 14 0.128452 3.80414 0.128452 3.80414
5 15 0.762824 3.0963 0.762824 3.0963
6 6 0.07 3.56359 0.07 3.56359
6 7 0.0473286 3.56359 0.0264575 3.47451
6 8 0.0626099 3.5725 0.0264575 3.47451
6 9 0.118322 3.42996 0.118322 3.42996
6 10 0.118322 3.42996 0.118322 3.42996
6 11 0.0916515 3.29633 0.0916515 3.29633
6 12 0.103184 3.35708 0.103184 3.35708
6 13 0.0572975 3.03863 0.0572975 3.03863
6 14 0.10247 3.80414 0.10247 3.80414
6 15 0.608523 3.0963 0.608523 3.0963
7 7 0.032 3.56359 0.01 3.38542
7 8 0.042332 3.5725 0.01 3.38542
7 9 0.08 3.42996 0.0447214 3.34087
7 10 0.08 3.42996 0.0447214 3.34087
7 11 0.0619677 3.29633 0.034641 3.20724
7 12 0.0697653 3.35708 0.039 3.26799
7 13 0.0387402 3.03863 0.0216564 2.94954
7 14 0.069282 3.80414 0.0387298 3.71505
7 15 0.411437 3.0963 0.23 3.00721
8 8 0.056 3.58141 0.01 3.38542
8 9 0.10583 3.43887 0.0447214 3.34087
8 10 0.10583 3.43887 0.0447214 3.34087
8 11 0.0819756 3.30523 0.034641 3.20724
8 12 0.0922908 3.36599 0.039 3.26799
8 13 0.0512484 3.04754 0.0216564 2.94954
8 14 0.0916515 3.81305 0.0387298 3.71505
8 15 0.544279 3.10521 0.23 3.00721
9 9 0.2 3.29633 0.2 3.29633
9 10 0.2 3.29633 0.2 3.29633
9 11 0.154919 3.2402 0.154919 3.2402
9 12 0.174413 3.22345 0.174413 3.22345
9 13 0.0968504 2.905 0.0968504 2.905
9 14 0.173205 3.6705 0.173205 3.6705
9 15 1.02859 2.96266 1.02859 2.96266
10 10 0.2 3.29633 0.2 3.29633
10 11 0.154919 3.16269 0.154919 3.16269
10 12 0.174413 3.22345 0.174413 3.22345
10 13 0.0968504 2.905 0.0968504 2.905
10 14 0.173205 3.6705 0.173205 3.6705
10 15 1.02859 2.96266 1.02859 2.96266
11 11 0.12 3.02906 0.12 3.02906
11 12 0.1351 3.08981 0.1351 3.08981
11 13 0.07502 2.8776 0.07502 2.8776
11 14 0.134164 3.53687 0.134164 3.53687
11 15 0.796743 2.82903 0.796743 2.82903
12 12 0.1521 3.15057 0.1521 3.15057
12 13 0.08446 2.83212 0.08446 2.83212
12 14 0.151046 3.59763 0.151046 3.59763
12 15 0.897 2.88979 0.897 2.88979
13 13 0.0469 2.51367 0.0469 2.51367
13 14 0.0839 3.32394 0.0839 3.32394
13 15 0.498097 2.57134 0.498097 2.57134
14 14 0.15 4.04468 0.15 4.04468
14 15 0.890786 3.33684 0.890786 3.33684
15 15 5.29 2.629 5.29 2.629

Bond Coeffs # harmonic

1 200 1.522
2 222.5 1.538
3 222.5 1.53
4 309 1.111
5 330 1.08
6 450 0.9572
7 450 1.365
8 390 1.49
9 455 1
10 200 1.48
11 403 1.04
12 525 1.26

Angle Coeffs # charmm

1 52 108 0 0
2 58.35 113.5 11.16 2.561
3 58.35 113.6 11.16 2.561
4 62.3 120 0 0
5 26.5 110.1 22.53 2.179
6 26.5 110.1 22.53 2.179
7 35.5 109 5.4 1.802
8 50 109.5 0 0
9 35 111 0 0
10 49 120 0 0
11 40.4 120 0 0
12 25 120 0 0
13 30 109.5 20 2.074
14 44 109.5 0 0
15 55 104.52 0 0
16 40 120 70 2.31
17 67.7 107.5 0 0
18 56.5 107.5 0 0
19 43.7 110 0 0
20 67.7 110 0 0
21 51.5 107.5 0 0
22 40 118 50 2.388
23 100 124 70 2.225

Dihedral Coeffs # charmmfsw

1 0.63 1 180 1
2 0.01 2 0 0
3 0.15 3 0 0
4 0.19 3 0 1
5 0.19 3 0 1
6 0.19 3 0 1
7 0 6 180 1
8 0 6 180 1
9 2.25 2 180 1
10 0.19 3 0 1
11 0.19 3 0 1
12 0 6 180 1
13 0 6 180 1
14 0.2 3 0 1
15 0.2 3 0 1
16 2.25 2 180 1
17 3.2 2 180 1
18 0.05 6 180 1
19 0.2 3 0 1
20 0.1 3 0 1

Improper Coeffs # harmonic

1 0 0
2 45 0
3 96 0

Atoms # full

1633 0 15 0 -8.1564 -8.1564 -31.46138279918768 0 0 0
1634 0 15 0 -6.1173 -6.1173 -31.46138279918768 0 0 0
1635 0 15 0 -6.1173 -8.1564 -29.677387629949898 0 0 0
1636 0 15 0 -8.1564 -6.1173 -29.677387629949898 0 0 0
1637 0 15 0 -4.0782 -8.1564 -31.46138279918768 0 0 0
1638 0 15 0 -2.0390999999999995 -6.1173 -31.46138279918768 0 0 0
1639 0 15 0 -2.0390999999999995 -8.1564 -29.677387629949898 0 0 0
1640 0 15 0 -4.0782 -6.1173 -29.677387629949898 0 0 0
1651 0 15 0 -8.1564 -4.0782 -31.46138279918768 0 0 0
1652 0 15 0 -6.1173 -2.0390999999999995 -31.46138279918768 0 0 0
1653 0 15 0 -6.1173 -4.0782 -29.677387629949898 0 0 0
1654 0 15 0 -8.1564 -2.0390999999999995 -29.677387629949898 0 0 0
1655 0 15 0 -4.0782 -4.0782 -31.46138279918768 0 0 0
1656 0 15 0 -2.0390999999999995 -2.0390999999999995 -31.46138279918768 0 0 0
1657 0 15 0 -2.0390999999999995 -4.0782 -29.677387629949898 0 0 0
1658 0 15 0 -4.0782 -2.0390999999999995 -29.677387629949898 0 0 0
1669 0 15 0 -8.1564 0 -31.46138279918768 0 0 0
1671 0 15 0 -6.1173 0 -29.677387629949898 0 0 0
1673 0 15 0 -4.0782 0 -31.46138279918768 0 0 0
1675 0 15 0 -2.0390999999999995 0 -29.677387629949898 0 0 0
1714 0 15 0 -8.1564 -8.1564 -27.893392460711006 0 0 0
1715 0 15 0 -6.1173 -6.1173 -27.893392460711006 0 0 0
1718 0 15 0 -4.0782 -8.1564 -27.893392460711006 0 0 0
1719 0 15 0 -2.0390999999999995 -6.1173 -27.893392460711006 0 0 0
1732 0 15 0 -8.1564 -4.0782 -27.893392460711006 0 0 0
1733 0 15 0 -6.1173 -2.0390999999999995 -27.893392460711006 0 0 0
1736 0 15 0 -4.0782 -4.0782 -27.893392460711006 0 0 0
1737 0 15 0 -2.0390999999999995 -2.0390999999999995 -27.893392460711006 0 0 0
1750 0 15 0 -8.1564 0 -27.893392460711006 0 0 0
1754 0 15 0 -4.0782 0 -27.893392460711006 0 0 0
1716 0 15 0 -6.1173 -8.1564 -26.10939729147278 0 0 0
1717 0 15 0 -8.1564 -6.1173 -26.10939729147278 0 0 0
1720 0 15 0 -2.0390999999999995 -8.1564 -26.10939729147278 0 0 0
1721 0 15 0 -4.0782 -6.1173 -26.10939729147278 0 0 0
1734 0 15 0 -6.1173 -4.0782 -26.10939729147278 0 0 0
1735 0 15 0 -8.1564 -2.0390999999999995 -26.10939729147278 0 0 0
1738 0 15 0 -2.0390999999999995 -4.0782 -26.10939729147278 0 0 0
1739 0 15 0 -4.0782 -2.0390999999999995 -26.10939729147278 0 0 0
1752 0 15 0 -6.1173 0 -26.10939729147278 0 0 0
1756 0 15 0 -2.0390999999999995 0 -26.10939729147278 0 0 0
1554 0 15 0 -6.1173 -8.1564 -33.24537796842518 0 0 0
1555 0 15 0 -8.1564 -6.1173 -33.24537796842518 0 0 0
1558 0 15 0 -2.0390999999999995 -8.1564 -33.24537796842518 0 0 0
1559 0 15 0 -4.0782 -6.1173 -33.24537796842518 0 0 0
1572 0 15 0 -6.1173 -4.0782 -33.24537796842518 0 0 0
1573 0 15 0 -8.1564 -2.0390999999999995 -33.24537796842518 0 0 0
1576 0 15 0 -2.0390999999999995 -4.0782 -33.24537796842518 0 0 0
1577 0 15 0 -4.0782 -2.0390999999999995 -33.24537796842518 0 0 0
1590 0 15 0 -6.1173 0 -33.24537796842518 0 0 0
1594 0 15 0 -2.0390999999999995 0 -33.24537796842518 0 0 0
1641 0 15 0 0 -8.1564 -31.46138279918768 0 0 0
1642 0 15 0 2.0390999999999995 -6.1173 -31.46138279918768 0 0 0
1643 0 15 0 2.0390999999999995 -8.1564 -29.677387629949898 0 0 0
1644 0 15 0 0 -6.1173 -29.677387629949898 0 0 0
1645 0 15 0 4.078199999999999 -8.1564 -31.46138279918768 0 0 0
1646 0 15 0 6.117300000000002 -6.1173 -31.46138279918768 0 0 0
1647 0 15 0 6.117300000000002 -8.1564 -29.677387629949898 0 0 0
1648 0 15 0 4.078199999999999 -6.1173 -29.677387629949898 0 0 0
1649 0 15 0 8.1564 -8.1564 -31.46138279918768 0 0 0
1650 0 15 0 8.1564 -6.1173 -29.677387629949898 0 0 0
1659 0 15 0 0 -4.0782 -31.46138279918768 0 0 0
1660 0 15 0 2.0390999999999995 -2.0390999999999995 -31.46138279918768 0 0 0
1661 0 15 0 2.0390999999999995 -4.0782 -29.677387629949898 0 0 0
1662 0 15 0 0 -2.0390999999999995 -29.677387629949898 0 0 0
1663 0 15 0 4.078199999999999 -4.0782 -31.46138279918768 0 0 0
1664 0 15 0 6.117300000000002 -2.0390999999999995 -31.46138279918768 0 0 0
1665 0 15 0 6.117300000000002 -4.0782 -29.677387629949898 0 0 0
1666 0 15 0 4.078199999999999 -2.0390999999999995 -29.677387629949898 0 0 0
1667 0 15 0 8.1564 -4.0782 -31.46138279918768 0 0 0
1668 0 15 0 8.1564 -2.0390999999999995 -29.677387629949898 0 0 0
1677 0 15 0 0 0 -31.46138279918768 0 0 0
1679 0 15 0 2.0390999999999995 0 -29.677387629949898 0 0 0
1681 0 15 0 4.078199999999999 0 -31.46138279918768 0 0 0
1683 0 15 0 6.117300000000002 0 -29.677387629949898 0 0 0
1685 0 15 0 8.1564 0 -31.46138279918768 0 0 0
1722 0 15 0 0 -8.1564 -27.893392460711006 0 0 0
1723 0 15 0 2.0390999999999995 -6.1173 -27.893392460711006 0 0 0
1726 0 15 0 4.078199999999999 -8.1564 -27.893392460711006 0 0 0
1727 0 15 0 6.117300000000002 -6.1173 -27.893392460711006 0 0 0
1730 0 15 0 8.1564 -8.1564 -27.893392460711006 0 0 0
1740 0 15 0 0 -4.0782 -27.893392460711006 0 0 0
1741 0 15 0 2.0390999999999995 -2.0390999999999995 -27.893392460711006 0 0 0
1744 0 15 0 4.078199999999999 -4.0782 -27.893392460711006 0 0 0
1745 0 15 0 6.117300000000002 -2.0390999999999995 -27.893392460711006 0 0 0
1748 0 15 0 8.1564 -4.0782 -27.893392460711006 0 0 0
1758 0 15 0 0 0 -27.893392460711006 0 0 0
1762 0 15 0 4.078199999999999 0 -27.893392460711006 0 0 0
1766 0 15 0 8.1564 0 -27.893392460711006 0 0 0
1724 0 15 0 2.0390999999999995 -8.1564 -26.10939729147278 0 0 0
1725 0 15 0 0 -6.1173 -26.10939729147278 0 0 0
1728 0 15 0 6.117300000000002 -8.1564 -26.10939729147278 0 0 0
1729 0 15 0 4.078199999999999 -6.1173 -26.10939729147278 0 0 0
1731 0 15 0 8.1564 -6.1173 -26.10939729147278 0 0 0
1742 0 15 0 2.0390999999999995 -4.0782 -26.10939729147278 0 0 0
1743 0 15 0 0 -2.0390999999999995 -26.10939729147278 0 0 0
1746 0 15 0 6.117300000000002 -4.0782 -26.10939729147278 0 0 0
1747 0 15 0 4.078199999999999 -2.0390999999999995 -26.10939729147278 0 0 0
1749 0 15 0 8.1564 -2.0390999999999995 -26.10939729147278 0 0 0
1760 0 15 0 2.0390999999999995 0 -26.10939729147278 0 0 0
1764 0 15 0 6.117300000000002 0 -26.10939729147278 0 0 0
1562 0 15 0 2.0390999999999995 -8.1564 -33.24537796842518 0 0 0
1563 0 15 0 0 -6.1173 -33.24537796842518 0 0 0
1566 0 15 0 6.117300000000002 -8.1564 -33.24537796842518 0 0 0
1567 0 15 0 4.078199999999999 -6.1173 -33.24537796842518 0 0 0
1569 0 15 0 8.1564 -6.1173 -33.24537796842518 0 0 0
1580 0 15 0 2.0390999999999995 -4.0782 -33.24537796842518 0 0 0
1581 0 15 0 0 -2.0390999999999995 -33.24537796842518 0 0 0
1584 0 15 0 6.117300000000002 -4.0782 -33.24537796842518 0 0 0
1585 0 15 0 4.078199999999999 -2.0390999999999995 -33.24537796842518 0 0 0
1587 0 15 0 8.1564 -2.0390999999999995 -33.24537796842518 0 0 0
1598 0 15 0 2.0390999999999995 0 -33.24537796842518 0 0 0
1602 0 15 0 6.117300000000002 0 -33.24537796842518 0 0 0
1670 0 15 0 -6.1173 2.0390999999999995 -31.46138279918768 0 0 0
1672 0 15 0 -8.1564 2.0390999999999995 -29.677387629949898 0 0 0
1674 0 15 0 -2.0390999999999995 2.0390999999999995 -31.46138279918768 0 0 0
1676 0 15 0 -4.0782 2.0390999999999995 -29.677387629949898 0 0 0
1687 0 15 0 -8.1564 4.078200000000001 -31.46138279918768 0 0 0
1688 0 15 0 -6.1173 6.117300000000002 -31.46138279918768 0 0 0
1689 0 15 0 -6.1173 4.078200000000001 -29.677387629949898 0 0 0
1690 0 15 0 -8.1564 6.117300000000002 -29.677387629949898 0 0 0
1691 0 15 0 -4.0782 4.078200000000001 -31.46138279918768 0 0 0
1692 0 15 0 -2.0390999999999995 6.117300000000002 -31.46138279918768 0 0 0
1693 0 15 0 -2.0390999999999995 4.078200000000001 -29.677387629949898 0 0 0
1694 0 15 0 -4.0782 6.117300000000002 -29.677387629949898 0 0 0
1705 0 15 0 -8.1564 8.1564 -31.46138279918768 0 0 0
1706 0 15 0 -6.1173 8.1564 -29.677387629949898 0 0 0
1707 0 15 0 -4.0782 8.1564 -31.46138279918768 0 0 0
1708 0 15 0 -2.0390999999999995 8.1564 -29.677387629949898 0 0 0
1751 0 15 0 -6.1173 2.0390999999999995 -27.893392460711006 0 0 0
1755 0 15 0 -2.0390999999999995 2.0390999999999995 -27.893392460711006 0 0 0
1768 0 15 0 -8.1564 4.078200000000001 -27.893392460711006 0 0 0
1769 0 15 0 -6.1173 6.117300000000002 -27.893392460711006 0 0 0
1772 0 15 0 -4.0782 4.078200000000001 -27.893392460711006 0 0 0
1773 0 15 0 -2.0390999999999995 6.117300000000002 -27.893392460711006 0 0 0
1786 0 15 0 -8.1564 8.1564 -27.893392460711006 0 0 0
1788 0 15 0 -4.0782 8.1564 -27.893392460711006 0 0 0
1753 0 15 0 -8.1564 2.0390999999999995 -26.10939729147278 0 0 0
1757 0 15 0 -4.0782 2.0390999999999995 -26.10939729147278 0 0 0
1770 0 15 0 -6.1173 4.078200000000001 -26.10939729147278 0 0 0
1771 0 15 0 -8.1564 6.117300000000002 -26.10939729147278 0 0 0
1774 0 15 0 -2.0390999999999995 4.078200000000001 -26.10939729147278 0 0 0
1775 0 15 0 -4.0782 6.117300000000002 -26.10939729147278 0 0 0
1787 0 15 0 -6.1173 8.1564 -26.10939729147278 0 0 0
1789 0 15 0 -2.0390999999999995 8.1564 -26.10939729147278 0 0 0
1591 0 15 0 -8.1564 2.0390999999999995 -33.24537796842518 0 0 0
1595 0 15 0 -4.0782 2.0390999999999995 -33.24537796842518 0 0 0
1608 0 15 0 -6.1173 4.078200000000001 -33.24537796842518 0 0 0
1609 0 15 0 -8.1564 6.117300000000002 -33.24537796842518 0 0 0
1612 0 15 0 -2.0390999999999995 4.078200000000001 -33.24537796842518 0 0 0
1613 0 15 0 -4.0782 6.117300000000002 -33.24537796842518 0 0 0
1625 0 15 0 -6.1173 8.1564 -33.24537796842518 0 0 0
1627 0 15 0 -2.0390999999999995 8.1564 -33.24537796842518 0 0 0
1678 0 15 0 2.0390999999999995 2.0390999999999995 -31.46138279918768 0 0 0
1680 0 15 0 0 2.0390999999999995 -29.677387629949898 0 0 0
1682 0 15 0 6.117300000000002 2.0390999999999995 -31.46138279918768 0 0 0
1684 0 15 0 4.078199999999999 2.0390999999999995 -29.677387629949898 0 0 0
1686 0 15 0 8.1564 2.0390999999999995 -29.677387629949898 0 0 0
1695 0 15 0 0 4.078200000000001 -31.46138279918768 0 0 0
1696 0 15 0 2.0390999999999995 6.117300000000002 -31.46138279918768 0 0 0
1697 0 15 0 2.0390999999999995 4.078200000000001 -29.677387629949898 0 0 0
1698 0 15 0 0 6.117300000000002 -29.677387629949898 0 0 0
1699 0 15 0 4.078199999999999 4.078200000000001 -31.46138279918768 0 0 0
1700 0 15 0 6.117300000000002 6.117300000000002 -31.46138279918768 0 0 0
1701 0 15 0 6.117300000000002 4.078200000000001 -29.677387629949898 0 0 0
1702 0 15 0 4.078199999999999 6.117300000000002 -29.677387629949898 0 0 0
1703 0 15 0 8.1564 4.078200000000001 -31.46138279918768 0 0 0
1704 0 15 0 8.1564 6.117300000000002 -29.677387629949898 0 0 0
1709 0 15 0 0 8.1564 -31.46138279918768 0 0 0
1710 0 15 0 2.0390999999999995 8.1564 -29.677387629949898 0 0 0
1711 0 15 0 4.078199999999999 8.1564 -31.46138279918768 0 0 0
1712 0 15 0 6.117300000000002 8.1564 -29.677387629949898 0 0 0
1713 0 15 0 8.1564 8.1564 -31.46138279918768 0 0 0
1759 0 15 0 2.0390999999999995 2.0390999999999995 -27.893392460711006 0 0 0
1763 0 15 0 6.117300000000002 2.0390999999999995 -27.893392460711006 0 0 0
1776 0 15 0 0 4.078200000000001 -27.893392460711006 0 0 0
1777 0 15 0 2.0390999999999995 6.117300000000002 -27.893392460711006 0 0 0
1780 0 15 0 4.078199999999999 4.078200000000001 -27.893392460711006 0 0 0
1781 0 15 0 6.117300000000002 6.117300000000002 -27.893392460711006 0 0 0
1784 0 15 0 8.1564 4.078200000000001 -27.893392460711006 0 0 0
1790 0 15 0 0 8.1564 -27.893392460711006 0 0 0
1792 0 15 0 4.078199999999999 8.1564 -27.893392460711006 0 0 0
1794 0 15 0 8.1564 8.1564 -27.893392460711006 0 0 0
1761 0 15 0 0 2.0390999999999995 -26.10939729147278 0 0 0
1765 0 15 0 4.078199999999999 2.0390999999999995 -26.10939729147278 0 0 0
1767 0 15 0 8.1564 2.0390999999999995 -26.10939729147278 0 0 0
1778 0 15 0 2.0390999999999995 4.078200000000001 -26.10939729147278 0 0 0
1779 0 15 0 0 6.117300000000002 -26.10939729147278 0 0 0
1782 0 15 0 6.117300000000002 4.078200000000001 -26.10939729147278 0 0 0
1783 0 15 0 4.078199999999999 6.117300000000002 -26.10939729147278 0 0 0
1785 0 15 0 8.1564 6.117300000000002 -26.10939729147278 0 0 0
1791 0 15 0 2.0390999999999995 8.1564 -26.10939729147278 0 0 0
1793 0 15 0 6.117300000000002 8.1564 -26.10939729147278 0 0 0
1599 0 15 0 0 2.0390999999999995 -33.24537796842518 0 0 0
1603 0 15 0 4.078199999999999 2.0390999999999995 -33.24537796842518 0 0 0
1605 0 15 0 8.1564 2.0390999999999995 -33.24537796842518 0 0 0
1616 0 15 0 2.0390999999999995 4.078200000000001 -33.24537796842518 0 0 0
1617 0 15 0 0 6.117300000000002 -33.24537796842518 0 0 0
1620 0 15 0 6.117300000000002 4.078200000000001 -33.24537796842518 0 0 0
1621 0 15 0 4.078199999999999 6.117300000000002 -33.24537796842518 0 0 0
1623 0 15 0 8.1564 6.117300000000002 -33.24537796842518 0 0 0
1629 0 15 0 2.0390999999999995 8.1564 -33.24537796842518 0 0 0
1631 0 15 0 6.117300000000002 8.1564 -33.24537796842518 0 0 0
1795 0 15 0 -8.1564 -8.1564 -24.32540212223504 0 0 0
1796 0 15 0 -6.1173 -6.1173 -24.32540212223504 0 0 0
1797 0 15 0 -4.0782 -8.1564 -24.32540212223504 0 0 0
1798 0 15 0 -2.0390999999999995 -6.1173 -24.32540212223504 0 0 0
1804 0 15 0 -8.1564 -4.0782 -24.32540212223504 0 0 0
1805 0 15 0 -6.1173 -2.0390999999999995 -24.32540212223504 0 0 0
1806 0 15 0 -4.0782 -4.0782 -24.32540212223504 0 0 0
1807 0 15 0 -2.0390999999999995 -2.0390999999999995 -24.32540212223504 0 0 0
1813 0 15 0 -8.1564 0 -24.32540212223504 0 0 0
1815 0 15 0 -4.0782 0 -24.32540212223504 0 0 0
1 1 10 -0.3 -3.8446124123308265 -2.074343757712896 -21.487868880648033 0 0 0
2 1 3 0.33 -4.5335972092693035 -1.2864203473034956 -21.737087431816207 0 0 0
3 1 3 0.33 -4.201703244665137 -3.009336994497807 -21.316853659286718 0 0 0
4 1 3 0.33 -3.2346520200893005 -2.243217180394698 -22.33929371609415 0 0 0
10 1 8 -0.18 -1.0869218405549292 -3.370843393065243 -21.20188610150486 0 0 0
11 1 1 0.09 -1.6544357522151965 -3.3258039444493623 -22.12691296599452 0 0 0
12 1 1 0.09 -0.8953865276804214 -4.450954747873823 -20.880786986997965 0 0 0
5 1 7 0.21 -2.8731314794838068 -1.6218831051171103 -20.422643172756306 0 0 0
6 1 2 0.1 -3.413857367664503 -1.2795818288337921 -19.506567271365114 0 0 0
7 1 8 -0.18 -1.9379516520193747 -2.7640584587094197 -20.010047690911133 0 0 0
8 1 1 0.09 -2.465072898035013 -3.603366892485813 -19.59215511124623 0 0 0
1514 495 4 0.417 -6.19009313016365 -5.1208841475790905 -20.803328084795375 1 0 0
1513 495 12 -0.834 -5.963071239984772 -4.230297846184279 -20.53584047992151 1 0 0
1515 495 4 0.417 -6.3766278927197115 -4.124253301144945 -19.6791271661337 1 0 0
1206 392 4 0.417 -8.534458625189657 -7.015368745624301 -21.340438850210834 0 1 0
1205 392 4 0.417 -7.088431410370771 -6.712135384472184 -21.670515326562057 0 1 0
1204 392 12 -0.834 -7.930532557079773 -6.29012450808645 -21.50020832105315 0 1 0
658 210 12 -0.834 -3.5839273312750586 -5.116256158480653 -21.7015690172607 0 0 0
659 210 4 0.417 -4.18482434113919 -5.418254777203201 -21.02042919013196 0 0 0
660 210 4 0.417 -3.0451729947601174 -5.881426326361579 -21.90279088735289 0 0 0
1438 470 12 -0.834 -5.306799850694895 -7.252042362795047 -20.53668914989873 0 0 0
1440 470 4 0.417 -5.6198026101246175 -8.022534157664843 -21.010612813320765 0 0 0
1439 470 4 0.417 -4.808397816765215 -7.608645897831104 -19.80139191479514 0 0 0
25 1 6 0.34 -2.0840659907032095 -0.3923492175400103 -20.93195444027888 0 0 0
447 139 4 0.417 -2.4593171627276087 -8.001273678561631 -21.013248843304066 -1 1 0
445 139 12 -0.834 -2.2373185731521987 -7.578162937955634 -21.84266210569443 -1 1 0
446 139 4 0.417 -2.1035267658826937 -8.30286814108283 -22.45350912563351 -1 1 0
9 1 1 0.09 -1.2363316192036102 -2.52176417981073 -19.259212200482498 0 0 0
257 76 4 0.417 -9.575012069881058 -4.074797804740205 -21.16378377229332 1 1 0
1341 437 4 0.417 -8.363107445018802 -2.890624387459774 -22.0913111380891 1 0 0
1447 473 12 -0.834 -5.955823421966474 -0.2998054593702423 -21.725561898224875 0 0 0
1339 437 12 -0.834 -7.805185097957185 -2.2647082080236145 -21.62959260990873 1 0 0
1340 437 4 0.417 -7.397855930032442 -2.7763684415851433 -20.930651149713796 1 0 0
1449 473 4 0.417 -6.720558737822687 -0.8754370949789866 -21.733308537784495 0 0 0
939 303 4 0.417 -0.5558918349783312 -6.512383352750459 -22.03475931729213 0 0 0
15 1 1 0.09 0.38442832884901174 -2.0304904585212498 -22.136649276250587 0 0 0
510 160 4 0.417 0.25996450874130483 9.613995836913563 -20.269504083919976 0 0 0
1229 400 4 0.417 -9.148642980178606 -0.9596779397898951 -21.930846569161407 0 0 0
26 1 11 -0.67 -2.1498780992706057 0.044850503399867084 -22.097070774058736 0 0 0
27 1 11 -0.67 -1.3458512327110974 0.2097551338383092 -20.087298042143164 0 0 0
1420 464 12 -0.834 -2.7067382106468623 -9.282304453192312 -19.54838905771606 0 1 0
1141 371 12 -0.834 -6.544156482555925 -7.450295556642913 -17.58836537058179 0 1 0
1422 464 4 0.417 -3.5767279720696705 -9.360624592730808 -19.156961287716282 0 1 0
1142 371 4 0.417 -6.862844970524244 -8.204349847996374 -17.092309126782055 0 1 0
1143 371 4 0.417 -7.134020397016426 -7.390731024318017 -18.339860248908963 0 1 0
576 182 4 0.417 -8.829105641960357 -6.216138951139745 -18.474070629241606 1 1 0
256 76 12 -0.834 -9.96356431544 -3.86156689453735 -22.012189378850884 1 1 0
902 291 4 0.417 -9.902096397810041 -8.08780147140612 -20.146247525177255 0 0 0
1100 357 4 0.417 -7.901884274256179 -4.207974640009912 -17.397426158763842 1 0 0
901 291 12 -0.834 -9.84110680596404 -8.401228044779298 -21.04862014558761 0 0 0
903 291 4 0.417 -9.92128090155597 -9.352462385888321 -20.978209651427314 0 0 0
938 303 4 0.417 0.5367082375696987 -7.341512947261655 -21.393927417098958 0 0 0
508 160 12 -0.834 0.3782623706457077 -9.59148708691754 -20.8193724623673 0 1 0
509 160 4 0.417 1.2752897037842879 -9.307293844856007 -20.643850149428733 0 1 0
937 303 12 -0.834 0.34853657356786666 -6.463391286152769 -21.725176800413067 0 0 0
258 76 4 0.417 -10.044059938684086 -4.704772972140026 -22.4580100027068 1 1 0
13 1 8 0.2 0.26425306807621696 -2.688634455841483 -21.258162601265575 0 0 0
14 1 1 0.09 0.5125525386172173 -2.0496671518384337 -20.386698291868214 0 0 0
17 1 3 0.44 0.9294889380972474 -4.70574090081456 -21.44348954213481 0 0 0
16 1 9 -0.7 1.3116935959980793 -3.740702749065825 -21.367393414956407 0 0 0
21 1 3 0.46 3.165887194051895 -5.429731459151615 -21.384435276441057 0 0 0
1799 0 15 0 0 -8.1564 -24.32540212223504 0 0 0
1800 0 15 0 2.0390999999999995 -6.1173 -24.32540212223504 0 0 0
1801 0 15 0 4.078199999999999 -8.1564 -24.32540212223504 0 0 0
1802 0 15 0 6.117300000000002 -6.1173 -24.32540212223504 0 0 0
1803 0 15 0 8.1564 -8.1564 -24.32540212223504 0 0 0
1808 0 15 0 0 -4.0782 -24.32540212223504 0 0 0
1809 0 15 0 2.0390999999999995 -2.0390999999999995 -24.32540212223504 0 0 0
1810 0 15 0 4.078199999999999 -4.0782 -24.32540212223504 0 0 0
1811 0 15 0 6.117300000000002 -2.0390999999999995 -24.32540212223504 0 0 0
1812 0 15 0 8.1564 -4.0782 -24.32540212223504 0 0 0
1817 0 15 0 0 0 -24.32540212223504 0 0 0
1819 0 15 0 4.078199999999999 0 -24.32540212223504 0 0 0
1821 0 15 0 8.1564 0 -24.32540212223504 0 0 0
23 1 3 0.46 2.4890265153723172 -1.6592046675784067 -21.506875755228087 0 0 0
18 1 5 0.64 2.645920985309407 -3.6090193895181657 -21.347388955622606 0 0 0
19 1 9 -0.8 3.4804035360614325 -4.55812915323291 -21.38039049837775 0 0 0
20 1 3 0.46 4.424277389961891 -4.394648209793176 -21.559790277086915 0 0 0
22 1 9 -0.8 3.163462164381755 -2.413401461201969 -21.482304674989553 0 0 0
24 1 3 0.46 4.168573726236497 -2.272284922687915 -21.717148279583196 0 0 0
768 246 4 0.417 6.533230563218551 -3.2375663645730555 -21.74829970274501 0 0 0
766 246 12 -0.834 6.048647453670489 -4.057907884607475 -21.84023412583721 0 0 0
767 246 4 0.417 6.723638097270184 -4.73659733152906 -21.8407551524552 0 0 0
1060 344 12 -0.834 8.045337745813931 -2.0447877803467764 -21.79223379585394 -1 0 0
1062 344 4 0.417 8.542166426125425 -2.851478753200774 -21.928773014360836 -1 0 0
1061 344 4 0.417 8.699218500375038 -1.3479341146734436 -21.84762709399562 -1 0 0
115 29 12 -0.834 8.475319436841563 -6.443515960154084 -21.809418164678586 -1 1 0
116 29 4 0.417 9.106779172943224 -7.148683164269312 -21.95164986480738 -1 1 0
117 29 4 0.417 7.625508344698422 -6.883419590693579 -21.78621930443921 -1 1 0
1044 338 4 0.417 5.373328100427858 -7.482071357929662 -21.885190545803002 0 1 0
1042 338 12 -0.834 6.114434405093689 -8.006912431698336 -21.582642804005257 0 1 0
1043 338 4 0.417 6.22580933668262 -8.67642154096874 -22.257613243218845 0 1 0
517 163 12 -0.834 3.251093095089751 -7.552883738392031 -21.550476829259587 0 0 0
518 163 4 0.417 3.5092150566418985 -8.282479067440025 -20.987186785766703 0 0 0
519 163 4 0.417 3.0992891238247227 -7.952838232823214 -22.40676175496556 0 0 0
710 227 4 0.417 8.174283928848103 -6.231463688405832 -19.968456455850525 0 1 0
171 47 4 0.417 5.865346992994713 -1.2592198208901872 -20.81489498788174 0 1 0
271 81 12 -0.834 3.165549045019501 -9.950039050187891 -20.086746192768427 0 1 0
178 50 12 -0.834 6.154524358725931 -1.9963054556258233 -19.25806679064762 0 0 0
179 50 4 0.417 6.050195184085139 -2.770722110035266 -18.7052316917896 0 0 0
180 50 4 0.417 7.094858762747498 -1.8178118299385146 -19.2460970592312 0 0 0
1151 374 4 0.417 6.702176637968062 -8.696992894117336 -19.943840718770083 -1 1 0
733 235 12 -0.834 1.9401930230785183 0.1770559841972307 -21.61895605746438 0 0 0
667 213 12 -0.834 2.153905952257811 -9.953054877545007 -22.96926299709513 0 0 0
668 213 4 0.417 1.3243828563654152 -9.712352129225843 -22.556726699619034 0 0 0
734 235 4 0.417 1.2458851661786337 0.8343456265125339 -21.66520475563796 0 0 0
1437 469 4 0.417 9.262069974222603 -0.9562372403497201 -18.920530207672158 0 0 0
1290 420 4 0.417 -5.771930337448439 9.79150946377347 -22.141246479744296 0 -1 0
675 215 4 0.417 -1.5219317035817765 9.860077259298082 -21.63396744932589 1 1 0
674 215 4 0.417 -1.3160544671120964 8.929370196462664 -22.810102737924478 1 1 0
1230 400 4 0.417 -9.527917373457976 0.486300197275312 -21.6916925128884 0 0 0
673 215 12 -0.834 -1.9089702047165158 9.59929510557361 -22.469686227478615 1 1 0
975 315 4 0.417 -5.830478600215411 9.198023443474261 -18.753084480815026 0 0 0
1288 420 12 -0.834 -6.195356542912365 -9.331810372257344 -22.086154967679764 0 0 0
1283 418 4 0.417 -2.759389338773872 8.080734958997512 -19.66972383487004 -1 -1 0
1282 418 12 -0.834 -3.146813892336952 7.804926811945318 -20.500424730152076 -1 -1 0
1448 473 4 0.417 -6.2943614105658465 0.5450250436042982 -21.429107267453766 0 0 0
1289 420 4 0.417 -7.124294823809222 -9.513655386872424 -22.228416072904025 0 0 0
1354 442 12 -0.834 -0.7917966385889016 7.012182999055437 -21.405760966884817 0 -1 0
1814 0 15 0 -6.1173 2.0390999999999995 -24.32540212223504 0 0 0
1816 0 15 0 -2.0390999999999995 2.0390999999999995 -24.32540212223504 0 0 0
1822 0 15 0 -8.1564 4.078200000000001 -24.32540212223504 0 0 0
1823 0 15 0 -6.1173 6.117300000000002 -24.32540212223504 0 0 0
1824 0 15 0 -4.0782 4.078200000000001 -24.32540212223504 0 0 0
1825 0 15 0 -2.0390999999999995 6.117300000000002 -24.32540212223504 0 0 0
1831 0 15 0 -8.1564 8.1564 -24.32540212223504 0 0 0
1832 0 15 0 -4.0782 8.1564 -24.32540212223504 0 0 0
1330 434 12 -0.834 -4.0403938848785295 1.9968141206141141 -22.132765170313977 0 0 0
1331 434 4 0.417 -4.496413417676345 1.8317175190668904 -22.95800542035928 0 0 0
1332 434 4 0.417 -3.331942084172632 1.3533202823199177 -22.117149504498343 0 0 0
1486 486 12 -0.834 -1.7760611046619132 4.3219467603416 -21.36689852293155 0 -1 0
1487 486 4 0.417 -1.864577334489757 4.110983981899989 -20.43744092513324 0 -1 0
1488 486 4 0.417 -1.5901404791508933 3.4821717076551546 -21.78695001518588 0 -1 0
943 305 12 -0.834 -6.562896885522539 4.159712253083322 -21.89872668474004 0 0 0
944 305 4 0.417 -7.286780936601363 4.77803352438631 -21.79920826255147 0 0 0
945 305 4 0.417 -5.798627599458588 4.71032926817086 -22.068859800706896 0 0 0