ITEM: TIMESTEP
100000
ITEM: NUMBER OF ATOMS
1835
ITEM: BOX BOUNDS pp pp pp
-1.0093999999999999e+01 1.0093999999999999e+01
-9.9900000000000002e+00 9.9900035801999998e+00
-3.3260936570991895e+01 1.7133863310708207e+01
ITEM: ATOMS id type element mass x y z vx vy vz ix iy iz
1633 15 C 197 -8.1564 -8.1564 -31.4614 0 0 0 0 0 0
1634 15 C 197 -6.1173 -6.1173 -31.4614 0 0 0 0 0 0
1635 15 C 197 -6.1173 -8.1564 -29.6774 0 0 0 0 0 0
1636 15 C 197 -8.1564 -6.1173 -29.6774 0 0 0 0 0 0
1637 15 C 197 -4.0782 -8.1564 -31.4614 0 0 0 0 0 0
1638 15 C 197 -2.0391 -6.1173 -31.4614 0 0 0 0 0 0
1639 15 C 197 -2.0391 -8.1564 -29.6774 0 0 0 0 0 0
1640 15 C 197 -4.0782 -6.1173 -29.6774 0 0 0 0 0 0
1651 15 C 197 -8.1564 -4.0782 -31.4614 0 0 0 0 0 0
1652 15 C 197 -6.1173 -2.0391 -31.4614 0 0 0 0 0 0
1653 15 C 197 -6.1173 -4.0782 -29.6774 0 0 0 0 0 0
1654 15 C 197 -8.1564 -2.0391 -29.6774 0 0 0 0 0 0
1655 15 C 197 -4.0782 -4.0782 -31.4614 0 0 0 0 0 0
1656 15 C 197 -2.0391 -2.0391 -31.4614 0 0 0 0 0 0
1657 15 C 197 -2.0391 -4.0782 -29.6774 0 0 0 0 0 0
1658 15 C 197 -4.0782 -2.0391 -29.6774 0 0 0 0 0 0
1669 15 C 197 -8.1564 0 -31.4614 0 0 0 0 0 0
1671 15 C 197 -6.1173 0 -29.6774 0 0 0 0 0 0
1673 15 C 197 -4.0782 0 -31.4614 0 0 0 0 0 0
1675 15 C 197 -2.0391 0 -29.6774 0 0 0 0 0 0
1714 15 C 197 -8.1564 -8.1564 -27.8934 0 0 0 0 0 0
1715 15 C 197 -6.1173 -6.1173 -27.8934 0 0 0 0 0 0
1718 15 C 197 -4.0782 -8.1564 -27.8934 0 0 0 0 0 0
1719 15 C 197 -2.0391 -6.1173 -27.8934 0 0 0 0 0 0
1732 15 C 197 -8.1564 -4.0782 -27.8934 0 0 0 0 0 0
1733 15 C 197 -6.1173 -2.0391 -27.8934 0 0 0 0 0 0
1736 15 C 197 -4.0782 -4.0782 -27.8934 0 0 0 0 0 0
1737 15 C 197 -2.0391 -2.0391 -27.8934 0 0 0 0 0 0
1750 15 C 197 -8.1564 0 -27.8934 0 0 0 0 0 0
1754 15 C 197 -4.0782 0 -27.8934 0 0 0 0 0 0
1716 15 C 197 -6.1173 -8.1564 -26.1094 0 0 0 0 0 0
1717 15 C 197 -8.1564 -6.1173 -26.1094 0 0 0 0 0 0
1720 15 C 197 -2.0391 -8.1564 -26.1094 0 0 0 0 0 0
1721 15 C 197 -4.0782 -6.1173 -26.1094 0 0 0 0 0 0
1734 15 C 197 -6.1173 -4.0782 -26.1094 0 0 0 0 0 0
1735 15 C 197 -8.1564 -2.0391 -26.1094 0 0 0 0 0 0
1738 15 C 197 -2.0391 -4.0782 -26.1094 0 0 0 0 0 0
1739 15 C 197 -4.0782 -2.0391 -26.1094 0 0 0 0 0 0
1752 15 C 197 -6.1173 0 -26.1094 0 0 0 0 0 0
1756 15 C 197 -2.0391 0 -26.1094 0 0 0 0 0 0
1554 15 C 197 -6.1173 -8.1564 -33.2454 0 0 0 0 0 0
1555 15 C 197 -8.1564 -6.1173 -33.2454 0 0 0 0 0 0
1558 15 C 197 -2.0391 -8.1564 -33.2454 0 0 0 0 0 0
1559 15 C 197 -4.0782 -6.1173 -33.2454 0 0 0 0 0 0
1572 15 C 197 -6.1173 -4.0782 -33.2454 0 0 0 0 0 0
1573 15 C 197 -8.1564 -2.0391 -33.2454 0 0 0 0 0 0
1576 15 C 197 -2.0391 -4.0782 -33.2454 0 0 0 0 0 0
1577 15 C 197 -4.0782 -2.0391 -33.2454 0 0 0 0 0 0
1590 15 C 197 -6.1173 0 -33.2454 0 0 0 0 0 0
1594 15 C 197 -2.0391 0 -33.2454 0 0 0 0 0 0
1641 15 C 197 0 -8.1564 -31.4614 0 0 0 0 0 0
1642 15 C 197 2.0391 -6.1173 -31.4614 0 0 0 0 0 0
1643 15 C 197 2.0391 -8.1564 -29.6774 0 0 0 0 0 0
1644 15 C 197 0 -6.1173 -29.6774 0 0 0 0 0 0
1645 15 C 197 4.0782 -8.1564 -31.4614 0 0 0 0 0 0
1646 15 C 197 6.1173 -6.1173 -31.4614 0 0 0 0 0 0
1647 15 C 197 6.1173 -8.1564 -29.6774 0 0 0 0 0 0
1648 15 C 197 4.0782 -6.1173 -29.6774 0 0 0 0 0 0
1649 15 C 197 8.1564 -8.1564 -31.4614 0 0 0 0 0 0
1650 15 C 197 8.1564 -6.1173 -29.6774 0 0 0 0 0 0
1659 15 C 197 0 -4.0782 -31.4614 0 0 0 0 0 0
1660 15 C 197 2.0391 -2.0391 -31.4614 0 0 0 0 0 0
1661 15 C 197 2.0391 -4.0782 -29.6774 0 0 0 0 0 0
1662 15 C 197 0 -2.0391 -29.6774 0 0 0 0 0 0
1663 15 C 197 4.0782 -4.0782 -31.4614 0 0 0 0 0 0
1664 15 C 197 6.1173 -2.0391 -31.4614 0 0 0 0 0 0
1665 15 C 197 6.1173 -4.0782 -29.6774 0 0 0 0 0 0
1666 15 C 197 4.0782 -2.0391 -29.6774 0 0 0 0 0 0
1667 15 C 197 8.1564 -4.0782 -31.4614 0 0 0 0 0 0
1668 15 C 197 8.1564 -2.0391 -29.6774 0 0 0 0 0 0
1677 15 C 197 0 0 -31.4614 0 0 0 0 0 0
1679 15 C 197 2.0391 0 -29.6774 0 0 0 0 0 0
1681 15 C 197 4.0782 0 -31.4614 0 0 0 0 0 0
1683 15 C 197 6.1173 0 -29.6774 0 0 0 0 0 0
1685 15 C 197 8.1564 0 -31.4614 0 0 0 0 0 0
1722 15 C 197 0 -8.1564 -27.8934 0 0 0 0 0 0
1723 15 C 197 2.0391 -6.1173 -27.8934 0 0 0 0 0 0
1726 15 C 197 4.0782 -8.1564 -27.8934 0 0 0 0 0 0
1727 15 C 197 6.1173 -6.1173 -27.8934 0 0 0 0 0 0
1730 15 C 197 8.1564 -8.1564 -27.8934 0 0 0 0 0 0
1740 15 C 197 0 -4.0782 -27.8934 0 0 0 0 0 0
1741 15 C 197 2.0391 -2.0391 -27.8934 0 0 0 0 0 0
1744 15 C 197 4.0782 -4.0782 -27.8934 0 0 0 0 0 0
1745 15 C 197 6.1173 -2.0391 -27.8934 0 0 0 0 0 0
1748 15 C 197 8.1564 -4.0782 -27.8934 0 0 0 0 0 0
1758 15 C 197 0 0 -27.8934 0 0 0 0 0 0
1762 15 C 197 4.0782 0 -27.8934 0 0 0 0 0 0
1766 15 C 197 8.1564 0 -27.8934 0 0 0 0 0 0
1724 15 C 197 2.0391 -8.1564 -26.1094 0 0 0 0 0 0
1725 15 C 197 0 -6.1173 -26.1094 0 0 0 0 0 0
1728 15 C 197 6.1173 -8.1564 -26.1094 0 0 0 0 0 0
1729 15 C 197 4.0782 -6.1173 -26.1094 0 0 0 0 0 0
1731 15 C 197 8.1564 -6.1173 -26.1094 0 0 0 0 0 0
1742 15 C 197 2.0391 -4.0782 -26.1094 0 0 0 0 0 0
1743 15 C 197 0 -2.0391 -26.1094 0 0 0 0 0 0
1746 15 C 197 6.1173 -4.0782 -26.1094 0 0 0 0 0 0
1747 15 C 197 4.0782 -2.0391 -26.1094 0 0 0 0 0 0
1749 15 C 197 8.1564 -2.0391 -26.1094 0 0 0 0 0 0
1760 15 C 197 2.0391 0 -26.1094 0 0 0 0 0 0
1764 15 C 197 6.1173 0 -26.1094 0 0 0 0 0 0
1562 15 C 197 2.0391 -8.1564 -33.2454 0 0 0 0 0 0
1563 15 C 197 0 -6.1173 -33.2454 0 0 0 0 0 0
1566 15 C 197 6.1173 -8.1564 -33.2454 0 0 0 0 0 0
1567 15 C 197 4.0782 -6.1173 -33.2454 0 0 0 0 0 0
1569 15 C 197 8.1564 -6.1173 -33.2454 0 0 0 0 0 0
1580 15 C 197 2.0391 -4.0782 -33.2454 0 0 0 0 0 0
1581 15 C 197 0 -2.0391 -33.2454 0 0 0 0 0 0
1584 15 C 197 6.1173 -4.0782 -33.2454 0 0 0 0 0 0
1585 15 C 197 4.0782 -2.0391 -33.2454 0 0 0 0 0 0
1587 15 C 197 8.1564 -2.0391 -33.2454 0 0 0 0 0 0
1598 15 C 197 2.0391 0 -33.2454 0 0 0 0 0 0
1602 15 C 197 6.1173 0 -33.2454 0 0 0 0 0 0
1670 15 C 197 -6.1173 2.0391 -31.4614 0 0 0 0 0 0
1672 15 C 197 -8.1564 2.0391 -29.6774 0 0 0 0 0 0
1674 15 C 197 -2.0391 2.0391 -31.4614 0 0 0 0 0 0
1676 15 C 197 -4.0782 2.0391 -29.6774 0 0 0 0 0 0
1687 15 C 197 -8.1564 4.0782 -31.4614 0 0 0 0 0 0
1688 15 C 197 -6.1173 6.1173 -31.4614 0 0 0 0 0 0
1689 15 C 197 -6.1173 4.0782 -29.6774 0 0 0 0 0 0
1690 15 C 197 -8.1564 6.1173 -29.6774 0 0 0 0 0 0
1691 15 C 197 -4.0782 4.0782 -31.4614 0 0 0 0 0 0
1692 15 C 197 -2.0391 6.1173 -31.4614 0 0 0 0 0 0
1693 15 C 197 -2.0391 4.0782 -29.6774 0 0 0 0 0 0
1694 15 C 197 -4.0782 6.1173 -29.6774 0 0 0 0 0 0
1705 15 C 197 -8.1564 8.1564 -31.4614 0 0 0 0 0 0
1706 15 C 197 -6.1173 8.1564 -29.6774 0 0 0 0 0 0
1707 15 C 197 -4.0782 8.1564 -31.4614 0 0 0 0 0 0
1708 15 C 197 -2.0391 8.1564 -29.6774 0 0 0 0 0 0
1751 15 C 197 -6.1173 2.0391 -27.8934 0 0 0 0 0 0
1755 15 C 197 -2.0391 2.0391 -27.8934 0 0 0 0 0 0
1768 15 C 197 -8.1564 4.0782 -27.8934 0 0 0 0 0 0
1769 15 C 197 -6.1173 6.1173 -27.8934 0 0 0 0 0 0
1772 15 C 197 -4.0782 4.0782 -27.8934 0 0 0 0 0 0
1773 15 C 197 -2.0391 6.1173 -27.8934 0 0 0 0 0 0
1786 15 C 197 -8.1564 8.1564 -27.8934 0 0 0 0 0 0
1788 15 C 197 -4.0782 8.1564 -27.8934 0 0 0 0 0 0
1753 15 C 197 -8.1564 2.0391 -26.1094 0 0 0 0 0 0
1757 15 C 197 -4.0782 2.0391 -26.1094 0 0 0 0 0 0
1770 15 C 197 -6.1173 4.0782 -26.1094 0 0 0 0 0 0
1771 15 C 197 -8.1564 6.1173 -26.1094 0 0 0 0 0 0
1774 15 C 197 -2.0391 4.0782 -26.1094 0 0 0 0 0 0
1775 15 C 197 -4.0782 6.1173 -26.1094 0 0 0 0 0 0
1787 15 C 197 -6.1173 8.1564 -26.1094 0 0 0 0 0 0
1789 15 C 197 -2.0391 8.1564 -26.1094 0 0 0 0 0 0
1591 15 C 197 -8.1564 2.0391 -33.2454 0 0 0 0 0 0
1595 15 C 197 -4.0782 2.0391 -33.2454 0 0 0 0 0 0
1608 15 C 197 -6.1173 4.0782 -33.2454 0 0 0 0 0 0
1609 15 C 197 -8.1564 6.1173 -33.2454 0 0 0 0 0 0
1612 15 C 197 -2.0391 4.0782 -33.2454 0 0 0 0 0 0
1613 15 C 197 -4.0782 6.1173 -33.2454 0 0 0 0 0 0
1625 15 C 197 -6.1173 8.1564 -33.2454 0 0 0 0 0 0
1627 15 C 197 -2.0391 8.1564 -33.2454 0 0 0 0 0 0
1678 15 C 197 2.0391 2.0391 -31.4614 0 0 0 0 0 0
1680 15 C 197 0 2.0391 -29.6774 0 0 0 0 0 0
1682 15 C 197 6.1173 2.0391 -31.4614 0 0 0 0 0 0
1684 15 C 197 4.0782 2.0391 -29.6774 0 0 0 0 0 0
1686 15 C 197 8.1564 2.0391 -29.6774 0 0 0 0 0 0
1695 15 C 197 0 4.0782 -31.4614 0 0 0 0 0 0
1696 15 C 197 2.0391 6.1173 -31.4614 0 0 0 0 0 0
1697 15 C 197 2.0391 4.0782 -29.6774 0 0 0 0 0 0
1698 15 C 197 0 6.1173 -29.6774 0 0 0 0 0 0
1699 15 C 197 4.0782 4.0782 -31.4614 0 0 0 0 0 0
1700 15 C 197 6.1173 6.1173 -31.4614 0 0 0 0 0 0
1701 15 C 197 6.1173 4.0782 -29.6774 0 0 0 0 0 0
1702 15 C 197 4.0782 6.1173 -29.6774 0 0 0 0 0 0
1703 15 C 197 8.1564 4.0782 -31.4614 0 0 0 0 0 0
1704 15 C 197 8.1564 6.1173 -29.6774 0 0 0 0 0 0
1709 15 C 197 0 8.1564 -31.4614 0 0 0 0 0 0
1710 15 C 197 2.0391 8.1564 -29.6774 0 0 0 0 0 0
1711 15 C 197 4.0782 8.1564 -31.4614 0 0 0 0 0 0
1712 15 C 197 6.1173 8.1564 -29.6774 0 0 0 0 0 0
1713 15 C 197 8.1564 8.1564 -31.4614 0 0 0 0 0 0
1759 15 C 197 2.0391 2.0391 -27.8934 0 0 0 0 0 0
1763 15 C 197 6.1173 2.0391 -27.8934 0 0 0 0 0 0
1776 15 C 197 0 4.0782 -27.8934 0 0 0 0 0 0
1777 15 C 197 2.0391 6.1173 -27.8934 0 0 0 0 0 0
1780 15 C 197 4.0782 4.0782 -27.8934 0 0 0 0 0 0
1781 15 C 197 6.1173 6.1173 -27.8934 0 0 0 0 0 0
1784 15 C 197 8.1564 4.0782 -27.8934 0 0 0 0 0 0
1790 15 C 197 0 8.1564 -27.8934 0 0 0 0 0 0
1792 15 C 197 4.0782 8.1564 -27.8934 0 0 0 0 0 0
1794 15 C 197 8.1564 8.1564 -27.8934 0 0 0 0 0 0
1761 15 C 197 0 2.0391 -26.1094 0 0 0 0 0 0
1765 15 C 197 4.0782 2.0391 -26.1094 0 0 0 0 0 0
1767 15 C 197 8.1564 2.0391 -26.1094 0 0 0 0 0 0
1778 15 C 197 2.0391 4.0782 -26.1094 0 0 0 0 0 0
1779 15 C 197 0 6.1173 -26.1094 0 0 0 0 0 0
1782 15 C 197 6.1173 4.0782 -26.1094 0 0 0 0 0 0
1783 15 C 197 4.0782 6.1173 -26.1094 0 0 0 0 0 0
1785 15 C 197 8.1564 6.1173 -26.1094 0 0 0 0 0 0
1791 15 C 197 2.0391 8.1564 -26.1094 0 0 0 0 0 0
1793 15 C 197 6.1173 8.1564 -26.1094 0 0 0 0 0 0
1599 15 C 197 0 2.0391 -33.2454 0 0 0 0 0 0
1603 15 C 197 4.0782 2.0391 -33.2454 0 0 0 0 0 0
1605 15 C 197 8.1564 2.0391 -33.2454 0 0 0 0 0 0
1616 15 C 197 2.0391 4.0782 -33.2454 0 0 0 0 0 0
1617 15 C 197 0 6.1173 -33.2454 0 0 0 0 0 0
1620 15 C 197 6.1173 4.0782 -33.2454 0 0 0 0 0 0
1621 15 C 197 4.0782 6.1173 -33.2454 0 0 0 0 0 0
1623 15 C 197 8.1564 6.1173 -33.2454 0 0 0 0 0 0
1629 15 C 197 2.0391 8.1564 -33.2454 0 0 0 0 0 0
1631 15 C 197 6.1173 8.1564 -33.2454 0 0 0 0 0 0
1795 15 C 197 -8.1564 -8.1564 -24.3254 0 0 0 0 0 0
1796 15 C 197 -6.1173 -6.1173 -24.3254 0 0 0 0 0 0
1797 15 C 197 -4.0782 -8.1564 -24.3254 0 0 0 0 0 0
1798 15 C 197 -2.0391 -6.1173 -24.3254 0 0 0 0 0 0
1804 15 C 197 -8.1564 -4.0782 -24.3254 0 0 0 0 0 0
1805 15 C 197 -6.1173 -2.0391 -24.3254 0 0 0 0 0 0
1806 15 C 197 -4.0782 -4.0782 -24.3254 0 0 0 0 0 0
1807 15 C 197 -2.0391 -2.0391 -24.3254 0 0 0 0 0 0
1813 15 C 197 -8.1564 0 -24.3254 0 0 0 0 0 0
1815 15 C 197 -4.0782 0 -24.3254 0 0 0 0 0 0
1 10 C 14.007 -3.84461 -2.07434 -21.4879 -0.000176984 0.00475901 0.00376641 0 0 0
2 3 C 1.008 -4.5336 -1.28642 -21.7371 -0.00526457 0.00384927 -0.0236947 0 0 0
3 3 C 1.008 -4.2017 -3.00934 -21.3169 -0.0179179 -0.00794635 0.0051552 0 0 0
4 3 C 1.008 -3.23465 -2.24322 -22.3393 -0.00206782 -0.0198159 -0.0163215 0 0 0
10 8 C 12.011 -1.08692 -3.37084 -21.2019 0.00479159 -0.00276289 0.00154467 0 0 0
11 1 C 1.008 -1.65444 -3.3258 -22.1269 -0.0118697 -0.00492374 -0.00833615 0 0 0
12 1 C 1.008 -0.895387 -4.45095 -20.8808 -0.00924161 0.00991503 0.021722 0 0 0
5 7 C 12.011 -2.87313 -1.62188 -20.4226 0.0018442 -0.00337724 0.00653303 0 0 0
6 2 C 1.008 -3.41386 -1.27958 -19.5066 0.00983696 0.0324219 0.00614918 0 0 0
7 8 C 12.011 -1.93795 -2.76406 -20.01 -0.00224975 -0.00372988 0.00526295 0 0 0
8 1 C 1.008 -2.46507 -3.60337 -19.5922 -0.0261986 -0.0429888 0.00979612 0 0 0
1514 4 C 1.008 -6.19009 -5.12088 -20.8033 0.00828775 -0.0140396 0.0296788 1 0 0
1513 12 C 15.999 -5.96307 -4.2303 -20.5358 -0.00152523 -0.00248215 -0.000429973 1 0 0
1515 4 C 1.008 -6.37663 -4.12425 -19.6791 0.02042 0.012344 0.0083115 1 0 0
1206 4 C 1.008 -8.53446 -7.01537 -21.3404 0.0127314 -0.0131766 0.017866 0 1 0
1205 4 C 1.008 -7.08843 -6.71214 -21.6705 0.00492066 0.0103777 0.00525934 0 1 0
1204 12 C 15.999 -7.93053 -6.29012 -21.5002 -0.00283797 -0.00373443 0.00186368 0 1 0
658 12 C 15.999 -3.58393 -5.11626 -21.7016 -0.00291046 0.0017789 0.00245463 0 0 0
659 4 C 1.008 -4.18482 -5.41825 -21.0204 -0.00199206 0.00116359 0.0029937 0 0 0
660 4 C 1.008 -3.04517 -5.88143 -21.9028 -0.00741685 0.000179184 -0.00349917 0 0 0
1438 12 C 15.999 -5.3068 -7.25204 -20.5367 -0.00480801 0.00316519 0.00675741 0 0 0
1440 4 C 1.008 -5.6198 -8.02253 -21.0106 -0.0122317 0.0113947 -0.00172756 0 0 0
1439 4 C 1.008 -4.8084 -7.60865 -19.8014 0.0225554 -0.00941794 -0.0179024 0 0 0
25 6 C 12.011 -2.08407 -0.392349 -20.932 -0.000781977 0.0020558 0.00229627 0 0 0
447 4 C 1.008 -2.45932 -8.00127 -21.0132 -0.0336071 0.015582 -0.000897068 -1 1 0
445 12 C 15.999 -2.23732 -7.57816 -21.8427 -0.00335033 0.00337523 0.000982537 -1 1 0
446 4 C 1.008 -2.10353 -8.30287 -22.4535 -0.0141682 -0.00464278 0.00813439 -1 1 0
9 1 C 1.008 -1.23633 -2.52176 -19.2592 -0.0116763 0.0103494 0.00737096 0 0 0
257 4 C 1.008 -9.57501 -4.0748 -21.1638 -0.0234026 0.0145282 0.0146024 1 1 0
1341 4 C 1.008 -8.36311 -2.89062 -22.0913 -0.00536495 0.02605 -0.0173576 1 0 0
1447 12 C 15.999 -5.95582 -0.299805 -21.7256 0.000596784 -0.0007865 -0.00465486 0 0 0
1339 12 C 15.999 -7.80519 -2.26471 -21.6296 -0.00222545 0.00569342 0.00643777 1 0 0
1340 4 C 1.008 -7.39786 -2.77637 -20.9307 -0.00982882 -0.0213988 -0.00898063 1 0 0
1449 4 C 1.008 -6.72056 -0.875437 -21.7333 0.00628571 -0.00838163 -0.00160234 0 0 0
939 4 C 1.008 -0.555892 -6.51238 -22.0348 -0.00480746 -0.0214536 0.0107728 0 0 0
15 1 C 1.008 0.384428 -2.03049 -22.1366 -0.000852892 -0.0238606 -0.015727 0 0 0
510 4 C 1.008 0.259965 9.614 -20.2695 -0.00549395 -0.00565843 -0.00428464 0 0 0
1229 4 C 1.008 -9.14864 -0.959678 -21.9308 0.0111619 0.0160152 -0.0182041 0 0 0
26 11 C 15.999 -2.14988 0.0448505 -22.0971 0.00143041 -0.0103605 0.00187138 0 0 0
27 11 C 15.999 -1.34585 0.209755 -20.0873 -0.00657571 -0.00295222 0.00402102 0 0 0
1420 12 C 15.999 -2.70674 -9.2823 -19.5484 -0.00856676 -0.00244334 -0.000996535 0 1 0
1141 12 C 15.999 -6.54416 -7.4503 -17.5884 4.73874e-06 -0.00286914 0.00239442 0 1 0
1422 4 C 1.008 -3.57673 -9.36062 -19.157 -0.009027 0.00953599 0.000379271 0 1 0
1142 4 C 1.008 -6.86284 -8.20435 -17.0923 -0.000265008 0.0080106 0.0187221 0 1 0
1143 4 C 1.008 -7.13402 -7.39073 -18.3399 -0.00628598 -0.0126668 0.00655954 0 1 0
576 4 C 1.008 -8.82911 -6.21614 -18.4741 -0.0193668 0.00729686 0.00399721 1 1 0
256 12 C 15.999 -9.96356 -3.86157 -22.0122 -0.00213049 -0.000125642 0.00117157 1 1 0
902 4 C 1.008 -9.9021 -8.0878 -20.1462 0.012983 0.0216727 -0.0127583 0 0 0
1100 4 C 1.008 -7.90188 -4.20797 -17.3974 0.0033497 -0.00667256 -0.0130479 1 0 0
901 12 C 15.999 -9.84111 -8.40123 -21.0486 0.000743281 -0.00297024 -0.00501448 0 0 0
903 4 C 1.008 -9.92128 -9.35246 -20.9782 0.0058746 -0.00137423 0.0224324 0 0 0
938 4 C 1.008 0.536708 -7.34151 -21.3939 0.020348 0.0167166 0.0172052 0 0 0
508 12 C 15.999 0.378262 -9.59149 -20.8194 -0.000391121 -0.00359025 -0.000270857 0 1 0
509 4 C 1.008 1.27529 -9.30729 -20.6439 -0.00332716 -0.0019607 0.0120587 0 1 0
937 12 C 15.999 0.348537 -6.46339 -21.7252 -0.00210768 0.00489286 -0.00133533 0 0 0
258 4 C 1.008 -10.0441 -4.70477 -22.458 0.0104686 -0.00765008 0.0131177 1 1 0
13 8 C 12.011 0.264253 -2.68863 -21.2582 9.69162e-05 0.00086941 -0.00631274 0 0 0
14 1 C 1.008 0.512553 -2.04967 -20.3867 0.0071078 -0.0211218 0.0299038 0 0 0
17 3 C 1.008 0.929489 -4.70574 -21.4435 -0.0313137 0.0219885 -0.0176996 0 0 0
16 9 C 14.007 1.31169 -3.7407 -21.3674 -0.00311525 0.00890852 0.00282978 0 0 0
21 3 C 1.008 3.16589 -5.42973 -21.3844 -0.00269951 -0.0136174 0.00740321 0 0 0
1799 15 C 197 0 -8.1564 -24.3254 0 0 0 0 0 0
1800 15 C 197 2.0391 -6.1173 -24.3254 0 0 0 0 0 0
1801 15 C 197 4.0782 -8.1564 -24.3254 0 0 0 0 0 0
1802 15 C 197 6.1173 -6.1173 -24.3254 0 0 0 0 0 0
1803 15 C 197 8.1564 -8.1564 -24.3254 0 0 0 0 0 0
1808 15 C 197 0 -4.0782 -24.3254 0 0 0 0 0 0
1809 15 C 197 2.0391 -2.0391 -24.3254 0 0 0 0 0 0
1810 15 C 197 4.0782 -4.0782 -24.3254 0 0 0 0 0 0
1811 15 C 197 6.1173 -2.0391 -24.3254 0 0 0 0 0 0
1812 15 C 197 8.1564 -4.0782 -24.3254 0 0 0 0 0 0
1817 15 C 197 0 0 -24.3254 0 0 0 0 0 0
1819 15 C 197 4.0782 0 -24.3254 0 0 0 0 0 0
1821 15 C 197 8.1564 0 -24.3254 0 0 0 0 0 0
23 3 C 1.008 2.48903 -1.6592 -21.5069 0.000943516 -0.0103833 0.00364702 0 0 0
18 5 C 12.011 2.64592 -3.60902 -21.3474 -0.00121458 -0.00402655 -0.00334363 0 0 0
19 9 C 14.007 3.4804 -4.55813 -21.3804 0.00358769 0.00329072 -0.00201205 0 0 0
20 3 C 1.008 4.42428 -4.39465 -21.5598 0.0184491 0.00722874 0.00476955 0 0 0
22 9 C 14.007 3.16346 -2.4134 -21.4823 -0.0011101 -0.00477862 -0.00524683 0 0 0
24 3 C 1.008 4.16857 -2.27228 -21.7171 0.00444263 0.0163848 0.0156544 0 0 0
768 4 C 1.008 6.53323 -3.23757 -21.7483 -0.0028739 0.0019041 -0.0364199 0 0 0
766 12 C 15.999 6.04865 -4.05791 -21.8402 0.00690971 -0.0084944 0.0048297 0 0 0
767 4 C 1.008 6.72364 -4.7366 -21.8408 0.0167428 0.00127648 0.0142086 0 0 0
1060 12 C 15.999 8.04534 -2.04479 -21.7922 -0.0021127 0.000703466 -0.00298047 -1 0 0
1062 4 C 1.008 8.54217 -2.85148 -21.9288 0.0115827 0.00807028 0.00326645 -1 0 0
1061 4 C 1.008 8.69922 -1.34793 -21.8476 -0.00467069 0.00728872 0.0489743 -1 0 0
115 12 C 15.999 8.47532 -6.44352 -21.8094 -0.00174699 -0.00372375 0.00505004 -1 1 0
116 4 C 1.008 9.10678 -7.14868 -21.9516 0.0027554 0.00362867 -0.0114133 -1 1 0
117 4 C 1.008 7.62551 -6.88342 -21.7862 -0.000587145 -0.00744649 -0.023736 -1 1 0
1044 4 C 1.008 5.37333 -7.48207 -21.8852 0.00282826 -0.00366628 -0.00193668 0 1 0
1042 12 C 15.999 6.11443 -8.00691 -21.5826 0.00444272 -0.000893847 -0.00109334 0 1 0
1043 4 C 1.008 6.22581 -8.67642 -22.2576 -0.00265943 -0.0104445 0.00723946 0 1 0
517 12 C 15.999 3.25109 -7.55288 -21.5505 0.00658898 0.00444899 0.000873402 0 0 0
518 4 C 1.008 3.50922 -8.28248 -20.9872 0.0137661 0.0128788 0.00851584 0 0 0
519 4 C 1.008 3.09929 -7.95284 -22.4068 0.00585771 -0.00675308 0.00624304 0 0 0
710 4 C 1.008 8.17428 -6.23146 -19.9685 0.00779027 0.00107042 0.00537553 0 1 0
171 4 C 1.008 5.86535 -1.25922 -20.8149 0.00340139 0.00431388 0.000524018 0 1 0
271 12 C 15.999 3.16555 -9.95004 -20.0867 -0.00313442 -0.0115024 -0.0050581 0 1 0
178 12 C 15.999 6.15452 -1.99631 -19.2581 0.00100687 -0.00176432 0.000469455 0 0 0
179 4 C 1.008 6.0502 -2.77072 -18.7052 0.00905397 -0.0191524 -0.0223474 0 0 0
180 4 C 1.008 7.09486 -1.81781 -19.2461 0.00236154 -0.00775606 -0.0152043 0 0 0
1151 4 C 1.008 6.70218 -8.69699 -19.9438 -0.00581888 -0.00429908 0.000157161 -1 1 0
733 12 C 15.999 1.94019 0.177056 -21.619 0.000399221 -0.00323254 0.00220597 0 0 0
667 12 C 15.999 2.15391 -9.95305 -22.9693 0.000811745 0.00297027 0.00151961 0 0 0
668 4 C 1.008 1.32438 -9.71235 -22.5567 -0.0178425 -0.0159832 -0.0250091 0 0 0
734 4 C 1.008 1.24589 0.834346 -21.6652 0.000563267 -0.00182076 0.0198666 0 0 0
1437 4 C 1.008 9.26207 -0.956237 -18.9205 -0.0436652 0.0221057 -0.00660987 0 0 0
1290 4 C 1.008 -5.77193 9.79151 -22.1412 -0.000469278 0.0117637 -0.00583305 0 -1 0
675 4 C 1.008 -1.52193 9.86008 -21.634 0.00791512 0.00996013 -0.00244288 1 1 0
674 4 C 1.008 -1.31605 8.92937 -22.8101 0.00254162 -0.00101852 0.00531353 1 1 0
1230 4 C 1.008 -9.52792 0.4863 -21.6917 -0.026389 0.0025031 0.00413754 0 0 0
673 12 C 15.999 -1.90897 9.5993 -22.4697 -0.000511974 -0.00397687 0.00582208 1 1 0
975 4 C 1.008 -5.83048 9.19802 -18.7531 -0.00877019 0.0106939 0.00327126 0 0 0
1288 12 C 15.999 -6.19536 -9.33181 -22.0862 -0.00414266 0.00981051 -0.00371296 0 0 0
1283 4 C 1.008 -2.75939 8.08073 -19.6697 -0.000584346 0.00599367 0.00293773 -1 -1 0
1282 12 C 15.999 -3.14681 7.80493 -20.5004 0.00898457 0.00147388 -1.45986e-05 -1 -1 0
1448 4 C 1.008 -6.29436 0.545025 -21.4291 -0.00620638 -0.00474163 -0.00114634 0 0 0
1289 4 C 1.008 -7.12429 -9.51366 -22.2284 -0.00608194 0.00345865 0.0169382 0 0 0
1354 12 C 15.999 -0.791797 7.01218 -21.4058 -0.00201453 -0.000679922 -0.0113137 0 -1 0
1814 15 C 197 -6.1173 2.0391 -24.3254 0 0 0 0 0 0
1816 15 C 197 -2.0391 2.0391 -24.3254 0 0 0 0 0 0
1822 15 C 197 -8.1564 4.0782 -24.3254 0 0 0 0 0 0
1823 15 C 197 -6.1173 6.1173 -24.3254 0 0 0 0 0 0
1824 15 C 197 -4.0782 4.0782 -24.3254 0 0 0 0 0 0
1825 15 C 197 -2.0391 6.1173 -24.3254 0 0 0 0 0 0
1831 15 C 197 -8.1564 8.1564 -24.3254 0 0 0 0 0 0
1832 15 C 197 -4.0782 8.1564 -24.3254 0 0 0 0 0 0
1330 12 C 15.999 -4.04039 1.99681 -22.1328 -3.54767e-05 0.00193969 -0.00243813 0 0 0
1331 4 C 1.008 -4.49641 1.83172 -22.958 -0.0212025 0.00832066 0.00798703 0 0 0
1332 4 C 1.008 -3.33194 1.35332 -22.1171 0.000225745 0.00168176 -0.0254887 0 0 0
1486 12 C 15.999 -1.77606 4.32195 -21.3669 -0.00818885 0.00065306 -0.00209146 0 -1 0
1487 4 C 1.008 -1.86458 4.11098 -20.4374 -0.0105616 -0.00130817 -0.00276483 0 -1 0
1488 4 C 1.008 -1.59014 3.48217 -21.787 0.000715134 0.00276724 -0.00236003 0 -1 0
943 12 C 15.999 -6.5629 4.15971 -21.8987 0.00125631 -0.00419422 -0.000460642 0 0 0
944 4 C 1.008 -7.28678 4.77803 -21.7992 0.0155888 0.0051872 0.0455347 0 0 0
945 4 C 1.008 -5.79863 4.71033 -22.0689 0.00801157 -0.0110245 0.0078251 0 0 0
864 4 C 1.008 -3.39221 5.15967 -22.02 0.00235185 -7.92357e-05 0.000241211 1 0 0
862 12 C 15.999 -4.14518 5.7302 -21.8659 0.00280308 0.00144294 -0.00318524 1 0 0
863 4 C 1.008 -3.82747 6.3839 -21.243 0.00747897 0.0133914 -0.0181304 1 0 0
877 12 C 15.999 -7.55911 1.77708 -21.3766 0.00405327 0.00263518 0.00404677 1 0 0
879 4 C 1.008 -7.13736 2.61723 -21.5569 0.00672257 -0.00148307 -0.00890293 1 0 0
878 4 C 1.008 -7.94102 1.88239 -20.5052 0.00977386 0.0151365 0.00504308 1 0 0
1498 12 C 15.999 -5.93927 7.85601 -21.5272 0.00034645 -0.00290102 0.00301016 0 0 0
1499 4 C 1.008 -5.21091 7.24254 -21.624 -0.00466849 -0.00590455 -0.0153125 0 0 0
1500 4 C 1.008 -6.47795 7.48101 -20.8305 0.00281269 -0.0138281 -0.000987509 0 0 0
922 12 C 15.999 -9.24091 4.35926 -19.6383 0.00431852 0.00135734 -0.00321065 0 0 0
923 4 C 1.008 -9.10699 3.51554 -19.2065 -0.000503904 0.00901133 0.0132428 0 0 0
1094 4 C 1.008 -0.474266 1.22925 -22.3853 0.013574 -0.00381253 -0.00437558 0 0 0
1355 4 C 1.008 -1.63507 7.39504 -21.1638 0.00739872 0.00500168 0.0125752 0 -1 0
973 12 C 15.999 -5.36223 9.96366 -19.0859 0.000324021 0.00438228 0.00157463 0 0 0
1507 12 C 15.999 -7.4298 6.4189 -19.8292 -0.00190035 0.0037325 0.000654962 0 0 0
1508 4 C 1.008 -8.18686 5.83326 -19.8183 -0.00196717 0.003605 -0.0113714 0 0 0
493 12 C 15.999 -8.93407 1.72845 -19.1214 0.00245823 -0.006572 -0.00884625 0 0 0
159 4 C 1.008 -9.05982 2.79182 -22.2488 -0.00317337 0.00996953 0.0217395 1 1 0
1284 4 C 1.008 -3.43419 8.61928 -20.9133 -0.00592173 -0.00272586 0.00204839 -1 -1 0
88 12 C 15.999 -2.11376 2.67657 -19.2019 -0.00300786 0.00231881 0.000218436 -1 1 0
89 4 C 1.008 -3.06571 2.64739 -19.2976 -0.00214886 -0.00576214 -0.00596391 -1 1 0
1228 12 C 15.999 -9.90312 -0.389616 -21.7824 -0.00287737 -0.00708451 -0.000665966 0 0 0
1093 12 C 15.999 -0.148023 1.98778 -21.9011 0.00440564 -0.00184591 -0.00123594 0 0 0
1492 12 C 15.999 -9.74951 5.91612 -22.7306 -0.000374981 -0.00230198 0.00385149 1 0 0
494 4 C 1.008 -8.31068 1.3893 -18.4791 0.0171299 0.0203123 -0.00887625 0 0 0
76 12 C 15.999 -4.7357 2.91172 -19.7267 0.00652844 -0.00550812 -0.010393 0 -1 0
77 4 C 1.008 -4.99165 3.78436 -20.0254 0.0371212 0.0111648 0.0120663 0 -1 0
1095 4 C 1.008 -0.360427 1.79859 -20.9871 0.0182335 -0.0141681 -0.00054677 0 0 0
1494 4 C 1.008 -9.47095 6.80198 -22.4985 0.00772769 -0.007385 0.0135729 1 0 0
158 4 C 1.008 -9.92835 4.02 -22.4194 -0.0129461 0.000733764 0.00510974 1 1 0
1356 4 C 1.008 -0.923467 6.06797 -21.32 -0.00832573 -0.00015048 -0.0152201 0 -1 0
90 4 C 1.008 -1.83352 1.76797 -19.3121 0.00392369 0.00229716 0.0177838 -1 1 0
495 4 C 1.008 -9.78894 1.44002 -18.8016 0.0109148 -0.00471928 0.0155442 0 0 0
78 4 C 1.008 -4.56209 2.42384 -20.5317 -0.0161761 0.00743407 -0.0231124 0 -1 0
191 4 C 1.008 0.415247 7.56085 -19.4945 -0.000415359 -0.00517268 0.0152496 0 1 0
205 12 C 15.999 6.14928 9.81564 -23.1177 0.00442271 0.00115945 -0.00681369 0 -1 0
207 4 C 1.008 5.57433 9.41377 -23.769 0.00409833 -0.00617632 -0.00200515 0 -1 0
924 4 C 1.008 -9.80854 4.16038 -20.3829 -0.000716857 -0.0091217 0.00343168 0 0 0
1493 4 C 1.008 9.5722 5.82521 -22.3337 -0.00680621 0.00599189 -0.00838491 0 0 0
169 12 C 15.999 5.55098 -0.961058 -21.6684 0.00372541 -0.00166066 -0.00168401 0 1 0
170 4 C 1.008 6.29867 -1.07931 -22.2543 0.00261959 -0.00971514 -0.001468 0 1 0
206 4 C 1.008 6.25063 9.14602 -22.4413 0.0124337 0.00527095 -0.00393463 0 -1 0
492 4 C 1.008 1.51468 4.65397 -20.4539 0.00178227 0.0025352 -0.00206874 0 0 0
490 12 C 15.999 1.38218 5.4362 -19.9183 -0.00151558 0.00385323 -0.00481505 0 0 0
427 12 C 15.999 5.67391 8.10494 -21.2425 0.00228929 0.00460064 -0.00717038 0 0 0
428 4 C 1.008 5.11821 7.36026 -21.4725 0.0266236 -0.011741 -0.0131207 0 0 0
491 4 C 1.008 0.798824 5.1499 -19.2155 -0.00165934 0.0042872 -0.00475667 0 0 0
157 12 C 15.999 -9.97377 3.07088 -22.3039 -0.00498792 -0.000477084 -0.00155327 1 1 0
429 4 C 1.008 5.20927 8.53921 -20.5271 -0.019995 -0.00687045 -0.0146633 0 0 0
762 4 C 1.008 7.35335 6.7319 -21.3633 0.00205691 -0.0111237 0.00358999 0 -1 0
760 12 C 15.999 8.02409 6.17271 -21.7552 0.00328015 -0.00440576 -0.00391989 0 -1 0
761 4 C 1.008 7.63098 5.30007 -21.769 0.0170806 -0.0109256 0.0131337 0 -1 0
735 4 C 1.008 2.72839 0.640191 -21.9027 0.000213206 0.00374358 0.0131128 0 0 0
669 4 C 1.008 2.49537 9.31716 -22.4254 -0.00345034 0.00637367 0.00865006 0 -1 0
1277 4 C 1.008 6.49277 3.13134 -22.3115 -0.0061799 0.00868481 -0.0149798 -1 0 0
1278 4 C 1.008 6.44089 3.72034 -20.9178 0.0101865 -0.0144263 -0.00460431 -1 0 0
1276 12 C 15.999 6.51621 3.96424 -21.8404 -0.00182148 0.00094334 -0.00152179 -1 0 0
1026 4 C 1.008 9.48915 8.26947 -20.8949 -0.00747506 0.0201406 0.000337027 0 0 0
1024 12 C 15.999 9.86285 8.58108 -21.7192 0.00399307 0.00416598 -0.000505656 0 0 0
1025 4 C 1.008 9.104 8.81811 -22.2523 0.0117894 0.00460894 -0.0113944 0 0 0
1381 12 C 15.999 4.42312 1.63753 -21.7217 -0.00104203 0.0029809 -0.00364959 0 0 0
1382 4 C 1.008 4.95308 0.912102 -22.052 0.0264203 0.0232397 -0.00411845 0 0 0
1383 4 C 1.008 4.80687 1.84674 -20.8701 -0.0208713 0.00444806 0.00492844 0 0 0
399 4 C 1.008 1.67097 3.08192 -22.1211 0.0144779 0.00461281 -0.0247026 0 0 0
397 12 C 15.999 2.4393 3.44878 -21.6837 0.00141896 0.00843471 -0.00496525 0 0 0
398 4 C 1.008 3.07734 2.73525 -21.6808 0.000402018 0.0076225 0.0226995 0 0 0
871 12 C 15.999 8.18452 1.33149 -21.5437 0.00452938 0.00531031 0.00209729 0 0 0
872 4 C 1.008 8.66819 0.54637 -21.8004 -0.00629365 -0.000674023 -1.62563e-05 0 0 0
1818 15 C 197 2.0391 2.0391 -24.3254 0 0 0 0 0 0
1820 15 C 197 6.1173 2.0391 -24.3254 0 0 0 0 0 0
1826 15 C 197 0 4.0782 -24.3254 0 0 0 0 0 0
1827 15 C 197 2.0391 6.1173 -24.3254 0 0 0 0 0 0
1828 15 C 197 4.0782 4.0782 -24.3254 0 0 0 0 0 0
1829 15 C 197 6.1173 6.1173 -24.3254 0 0 0 0 0 0
1830 15 C 197 8.1564 4.0782 -24.3254 0 0 0 0 0 0
1833 15 C 197 0 8.1564 -24.3254 0 0 0 0 0 0
1834 15 C 197 4.0782 8.1564 -24.3254 0 0 0 0 0 0
1835 15 C 197 8.1564 8.1564 -24.3254 0 0 0 0 0 0
349 12 C 15.999 2.09575 7.80138 -21.3573 0.00462582 0.000108409 -0.00626333 0 0 0
350 4 C 1.008 2.51549 7.03489 -20.9668 -0.0143681 -0.00553278 0.00312208 0 0 0
351 4 C 1.008 1.24803 7.48025 -21.6647 0.0167452 0.00616371 -0.0460353 0 0 0
873 4 C 1.008 8.77256 2.05604 -21.7569 0.0139499 -0.00213901 0.00272874 0 0 0
151 12 C 15.999 3.96114 5.82409 -21.7119 0.00256431 -0.0017935 0.000568702 1 1 0
152 4 C 1.008 4.75701 5.3362 -21.9236 -0.0059512 -0.0176067 0.00503198 1 1 0
153 4 C 1.008 3.24934 5.20632 -21.8791 -0.0094122 0.0159597 -0.0141547 1 1 0
193 12 C 15.999 5.85527 2.87357 -19.3338 -0.00713467 -0.00193319 0.010044 0 0 0
713 4 C 1.008 5.72115 -0.149846 -19.0118 0.00784015 -0.0140809 0.00491797 0 -1 0
1241 4 C 1.008 3.43591 6.01266 -19.1786 0.00604201 0.00513676 0.00438491 0 0 0
195 4 C 1.008 5.7438 2.02138 -18.9125 0.00174611 -0.00118736 0.013912 0 0 0
1047 4 C 1.008 8.13207 0.980528 -19.624 -0.023683 -0.0142858 0.0104721 -1 1 0
194 4 C 1.008 5.66546 3.50918 -18.6438 -0.0149487 -0.000794994 0.00683403 0 0 0
574 12 C 15.999 -9.1547 -7.08968 -18.6912 -0.0026486 0.00112651 0.00376952 1 1 0
575 4 C 1.008 -9.4301 -7.45861 -17.852 -0.00860369 0.000966655 0.00174807 1 1 0
821 4 C 1.008 1.16199 -0.624937 -18.4832 0.0197854 0.00227262 0.027726 0 0 0
42 4 C 1.008 -9.22907 -5.24723 -15.5343 -0.0180149 -0.00796666 -0.00805988 0 1 0
1421 4 C 1.008 -2.11055 -9.23629 -18.8009 -0.00646555 -0.0138218 -0.00196057 0 1 0
41 4 C 1.008 -9.49544 -5.34364 -17.0215 0.0112984 0.00877757 -0.0143896 0 1 0
40 12 C 15.999 -8.79075 -5.38069 -16.3747 -0.0015316 0.000840285 -0.000876095 0 1 0
1166 4 C 1.008 -5.66967 -0.596524 -14.3081 -0.000737466 -0.000253498 0.00115546 2 0 0
1165 12 C 15.999 -5.44544 -1.51452 -14.4606 -0.00263861 -0.000233431 -0.00174823 2 0 0
486 4 C 1.008 -5.20766 -2.63792 -15.9348 -0.0295587 -0.00391663 -0.00737823 0 0 0
485 4 C 1.008 -5.03673 -2.09461 -17.3374 0.0216275 0.00942302 0.00399513 0 0 0
484 12 C 15.999 -5.05336 -2.91159 -16.8389 0.00534839 0.00481542 -0.00408494 0 0 0
450 4 C 1.008 -1.6489 -9.71117 -11.3955 -0.00826591 -0.0119011 -0.0208335 1 1 0
1101 4 C 1.008 -6.50441 -3.63193 -17.4819 0.00338452 -0.00555213 -0.00486172 1 0 0
1099 12 C 15.999 -7.30775 -3.74681 -17.9895 0.00305158 0.00253545 -0.00617337 1 0 0
1496 4 C 1.008 -9.34434 -8.96938 -15.7477 -0.00345952 0.0128576 -0.0146443 1 1 0
1495 12 C 15.999 -8.46176 -9.05401 -16.1084 -0.000299645 -0.00139817 -0.00367286 1 1 0
1497 4 C 1.008 -8.54704 -9.71043 -16.7999 -0.00800256 0.0200209 -0.0231258 1 1 0
448 12 C 15.999 -0.797321 -9.70614 -11.8325 0.000936533 0.00179094 -0.00275503 1 1 0