1835
Atoms. Timestep: 100000
N -3.84461 -2.07434 -21.4879
H -4.5336 -1.28642 -21.7371
H -4.2017 -3.00934 -21.3169
H -3.23465 -2.24322 -22.3393
C -2.87313 -1.62188 -20.4226
H -3.41386 -1.27958 -19.5066
C -1.93795 -2.76406 -20.01
H -2.46507 -3.60337 -19.5922
H -1.23633 -2.52176 -19.2592
C -1.08692 -3.37084 -21.2019
H -1.65444 -3.3258 -22.1269
H -0.895387 -4.45095 -20.8808
C 0.264253 -2.68863 -21.2582
H 0.512553 -2.04967 -20.3867
H 0.384428 -2.03049 -22.1366
N 1.31169 -3.7407 -21.3674
H 0.929489 -4.70574 -21.4435
C 2.64592 -3.60902 -21.3474
N 3.4804 -4.55813 -21.3804
H 4.42428 -4.39465 -21.5598
H 3.16589 -5.42973 -21.3844
N 3.16346 -2.4134 -21.4823
H 2.48903 -1.6592 -21.5069
H 4.16857 -2.27228 -21.7171
C -2.08407 -0.392349 -20.932
O -2.14988 0.0448505 -22.0971
O -1.34585 0.209755 -20.0873
Cl -1.77462 -3.50407 -9.5108
Cl 2.02203 -4.72936 -1.85979
Na 3.9936 -2.30415 -9.93052
O 9.94449 0.773739 8.41882
H -9.36477 0.792486 8.03975
H 10.0886 0.608958 9.35066
O -2.70319 -2.36086 -0.817027
H -2.68911 -1.61482 -0.217488
H -3.38584 -2.14527 -1.45243
O -7.34084 -4.75673 7.72852
H -7.70605 -4.10039 7.13516
H -7.53838 -4.42485 8.60434
O -8.79075 -5.38069 -16.3747
H -9.49544 -5.34364 -17.0215
H -9.22907 -5.24723 -15.5343
O 9.19407 6.74322 -12.3894
H 9.84083 6.43463 -11.7548
H 8.40554 6.23703 -12.1939
O 7.13038 4.66181 2.25136
H 7.37537 4.74234 1.32955
H 7.96339 4.67132 2.72278
O 0.724311 -7.95622 -15.4955
H 0.364022 -7.23383 -14.9811
H 1.64912 -7.98738 -15.2505
O 3.87656 5.96131 5.47728
H 4.41116 5.46455 4.85788
H 3.31113 5.30585 5.88582
O 2.6152 -7.1346 10.0707
H 2.70014 -6.19181 9.92871
H 1.67699 -7.27441 10.199
O 0.333775 5.96264 12.9618
H -0.272895 5.261 13.1982
H 1.19754 5.55077 12.9843
O -7.57887 0.836535 7.86279
H -6.87655 0.791922 7.21396
H -7.51577 1.72057 8.22436
O 9.23236 6.9334 -15.1426
H 9.03029 7.04142 -14.2133
H -9.99994 6.8925 -15.1773
O 1.37362 0.819191 1.1311
H 2.17248 1.31341 0.947224
H 1.17237 0.373548 0.30822
O -3.21669 -8.94934 -10.0079
H -4.15495 -9.09623 -10.1275
H -3.08661 -8.02927 -10.2376
O -8.43984 7.00519 -0.412247
H -7.81686 7.69831 -0.630672
H -9.12753 7.44844 0.0845945
O -4.7357 2.91172 -19.7267
H -4.99165 3.78436 -20.0254
H -4.56209 2.42384 -20.5317
O -2.1411 5.40093 -8.60497
H -2.16379 5.12124 -7.68983
H -1.20904 5.46566 -8.8131
O 8.65745 -5.92258 -5.6469
H 9.38571 -5.56527 -6.15504
H 8.03074 -6.2237 -6.30477
O -8.09636 -7.04003 -11.8894
H -8.03279 -6.86749 -12.8287
H -9.0062 -7.30535 -11.7551
O -2.11376 2.67657 -19.2019
H -3.06571 2.64739 -19.2976
H -1.83352 1.76797 -19.3121
O 6.68885 -3.45476 -5.28128
H 7.6005 -3.5521 -5.00621
H 6.18287 -3.55505 -4.47496
O 6.60613 -4.46193 1.01698
H 7.02903 -3.60549 1.07935
H 5.70735 -4.30753 1.30782
O 7.59435 -8.31574 -12.4878
H 7.01527 -9.00545 -12.1634
H 7.01937 -7.73339 -12.9843
O 7.57223 -2.20724 12.649
H 6.83498 -2.73285 12.9595
H 8.12331 -2.82617 12.17
O 9.45323 -0.345512 -6.78518
H -9.98197 0.0468931 -6.34298
H 8.89664 0.397963 -7.01688
O 4.92062 -4.03441 -3.3623
H 3.99729 -4.27141 -3.27553
H 5.39109 -4.72975 -2.90252
O -7.93312 6.77016 2.61295
H -7.93605 5.93471 3.08011
H -8.85858 6.96835 2.46985
O -2.2338 -3.08021 8.50903
H -3.16188 -2.94285 8.3192
H -1.85315 -2.20209 8.49354
O 8.47532 -6.44352 -21.8094
H 9.10678 -7.14868 -21.9516
H 7.62551 -6.88342 -21.7862
O -5.21529 -9.5607 -16.382
H -5.35128 -9.69693 -17.3197
H -4.67236 -8.77409 -16.3301
O -5.99077 9.82784 14.1326
H -5.88523 -9.38598 13.5687
H -5.17831 9.78745 14.6371
O 5.98207 6.97334 -13.0357
H 5.05499 6.74871 -12.9563
H 6.43962 6.13658 -12.9538
O -2.23113 -1.9422 3.79154
H -1.74254 -2.73922 3.99715
H -3.12245 -2.12345 4.08977
O -2.62477 -3.30068 -6.56215
H -2.32952 -3.55054 -7.43772
H -1.84356 -3.37759 -6.01441
O 6.20181 -4.45342 12.7303
H 5.27171 -4.67862 12.7095
H 6.64614 -5.23909 12.4116
O 6.18955 0.0916867 12.9281
H 6.89705 0.735022 12.8858
H 6.60819 -0.740303 12.7073
O -6.06627 -0.237671 -7.66786
H -5.23718 -0.491433 -7.26233
H -5.8762 -0.209978 -8.60559
O -0.0956311 -9.76983 11.2376
H 0.327376 -9.76994 10.379
H 0.493556 -9.26185 11.7953
O 3.55553 -0.510108 -4.20354
H 4.16324 -0.773704 -3.51257
H 3.7694 0.407157 -4.37417
O 7.07689 -7.01769 5.86073
H 7.24785 -7.31751 4.96792
H 6.16464 -6.72815 5.84611
O 3.96114 5.82409 -21.7119
H 4.75701 5.3362 -21.9236
H 3.24934 5.20632 -21.8791
O -6.71973 -7.46686 -8.32104
H -6.0762 -6.89627 -7.90088
H -6.36427 -7.62657 -9.19532
O -9.97377 3.07088 -22.3039
H -9.92835 4.02 -22.4194
H -9.05982 2.79182 -22.2488
O -6.4599 -3.16974 -5.44894
H -6.66138 -2.26879 -5.70177
H -6.67395 -3.21103 -4.51689
O -3.81126 2.06127 12.7964
H -3.54435 1.16173 12.9856
H -3.96405 2.07251 11.8515
O -3.83531 5.69287 -11.7577
H -3.76393 6.19548 -12.5692
H -3.30992 6.18269 -11.125
O 5.55098 -0.961058 -21.6684
H 6.29867 -1.07931 -22.2543
H 5.86535 -1.25922 -20.8149
O 7.37088 -1.65334 0.904166
H 7.97865 -1.63625 0.164866
H 7.90376 -1.40258 1.65875
O 1.26243 4.08984 -7.99114
H 1.42855 3.22506 -7.61592
H 1.46522 4.70153 -7.28337
O 6.15452 -1.99631 -19.2581
H 6.0502 -2.77072 -18.7052
H 7.09486 -1.81781 -19.2461
O -2.80989 8.29847 -6.83887
H -2.21439 8.89964 -7.28631
H -2.87346 7.54372 -7.42414
O -9.67498 -4.60095 -7.31659
H -9.62625 -4.81274 -8.24879
H -9.05188 -5.1977 -6.90201
O -5.54871 -8.89959 -2.2969
H -5.75457 -8.6597 -3.2004
H -5.37087 -8.06575 -1.86179
O 0.162985 8.35684 -19.0265
H 0.415247 7.56085 -19.4945
H -0.612443 8.10487 -18.525
O 5.85527 2.87357 -19.3338
H 5.66546 3.50918 -18.6438
H 5.7438 2.02138 -18.9125
O 5.00956 9.20845 -15.1468
H 4.31709 8.79559 -14.6308
H 5.58732 8.48652 -15.3943
O -9.46609 6.5545 6.59394
H 9.95445 6.4039 6.04209
H -9.52484 5.88429 7.27482
O -0.340687 4.67984 -2.18608
H 0.290846 5.39622 -2.25082
H -1.177 5.11208 -2.01292
O 6.14928 9.81564 -23.1177
H 6.25063 9.14602 -22.4413
H 5.57433 9.41377 -23.769
O -1.02282 -3.63939 -2.81906
H -0.488567 -4.25268 -2.3144
H -1.28505 -2.97173 -2.18527
O -8.0614 8.73238 12.3589
H -7.44574 8.95227 13.0581
H -8.41712 7.8804 12.6116
O 8.47681 -0.873485 -3.48027
H 7.99375 -1.44877 -2.88703
H 7.79873 -0.374567 -3.93582
O 4.69386 -3.79986 -12.211
H 4.38641 -4.00691 -13.0935
H 4.06523 -4.22945 -11.6309
O -9.62412 4.67035 -1.40631
H -9.15655 3.94965 -0.984179
H -9.24873 5.46037 -1.0175
O -8.37448 9.7302 -10.1313
H -9.28138 9.49408 -10.3262
H -8.25754 9.49412 -9.21102
O -2.64649 1.75222 4.0999
H -2.80344 2.60816 3.7012
H -1.69307 1.67268 4.12998
O 4.27987 1.53987 5.77944
H 4.38335 0.874216 6.45946
H 3.48626 1.28233 5.3103
O -2.36893 7.77738 -17.5958
H -3.07961 7.4484 -17.0454
H -2.2659 8.69212 -17.3334
O 7.63377 2.20263 9.78705
H 7.96888 1.60308 9.12037
H 6.68254 2.16525 9.6871
O -8.26681 7.68147 -14.7106
H -8.34766 8.52371 -14.263
H -7.74009 7.14463 -14.1184
O 2.2966 -2.25714 -8.40234
H 1.44972 -1.83292 -8.5404
H 2.08011 -3.10357 -8.0113
O -3.06799 5.35785 5.75801
H -2.66157 6.22325 5.71172
H -3.27267 5.23813 6.68537
O -1.90595 -5.48243 9.54381
H -1.78779 -4.57108 9.27605
H -2.85441 -5.59102 9.61359
O 6.18602 0.538663 -4.65895
H 6.42726 1.4253 -4.92712
H 5.72923 0.174519 -5.41722
O -9.15333 1.30022 -0.949841
H -9.467 0.808902 -1.70909
H -8.93616 0.629151 -0.302744
O -9.96356 -3.86157 -22.0122
H -9.57501 -4.0748 -21.1638
H -10.0441 -4.70477 -22.458
O 9.73882 4.2892 8.87101
H 8.8498 4.05025 9.13325
H 9.83137 3.93542 7.98641
O -9.17037 0.0917674 5.57797
H -8.35996 0.330147 6.02813
H -9.31153 -0.826568 5.80811
O 9.13788 -4.75058 9.04327
H 8.75752 -3.87276 9.07488
H 9.53632 -4.80834 8.17485
O -0.262489 -7.26899 10.1792
H -0.90957 -6.56364 10.1789
H -0.693724 -7.99006 10.6378
O 3.16555 -9.95004 -20.0867
H 3.69477 9.80797 -19.3207
H 2.85963 9.18631 -20.4197
O 5.88531 -8.20056 -16.4706
H 5.70776 -9.10199 -16.202
H 5.99374 -8.25003 -17.4203
O -8.26368 -1.89809 -9.06215
H -8.40837 -2.82867 -8.89094
H -7.43565 -1.69954 -8.6249
O -2.13828 -6.85199 7.2207
H -1.78904 -6.67455 8.09407
H -1.58663 -7.55624 6.88018
O 7.60603 1.79608 -0.633585
H 7.74135 2.74147 -0.569115
H 8.28249 1.41795 -0.0717527
O -5.38608 3.8851 5.35746
H -5.75683 4.54888 5.93898
H -4.49242 4.18458 5.19034
O -8.66227 -1.59582 -14.5965
H -9.60412 -1.54972 -14.7609
H -8.45424 -2.52845 -14.6525
O -5.69932 9.52742 -13.9295
H -5.58054 9.83321 -14.8288
H -4.98917 8.90017 -13.7936
O 8.94785 0.00247488 -15.889
H 8.74866 0.920845 -16.0711
H 8.75901 -0.451444 -16.7103
O 1.86646 4.67535 -15.4993
H 1.32672 3.88609 -15.5439
H 1.24319 5.39724 -15.5808
O 6.19416 -5.68596 10.0654
H 7.14746 -5.76035 10.0216
H 5.87766 -6.58077 9.94151
O -2.65069 7.86669 0.384657
H -3.52676 7.60176 0.664922
H -2.48312 7.34757 -0.401896
O 3.41824 -5.59522 -17.0706
H 2.46228 -5.61952 -17.0285
H 3.6984 -6.3957 -16.6267
O 5.12452 8.79894 -18.5127
H 4.98787 8.77682 -17.5656
H 5.98498 8.39953 -18.6405
O 1.9209 -4.57886 12.8411
H 1.62812 -3.77093 12.4195
H 1.14034 -5.13227 12.8675
O 9.49459 4.28286 3.43784
H 9.64098 3.41519 3.06108
H -9.87897 4.48507 3.89831
O -1.72008 -9.17006 -16.7215
H -0.850599 -8.79634 -16.5781
H -2.31449 -8.57922 -16.2591
O -7.86676 0.107071 -5.68053
H -7.283 0.603359 -5.10681
H -7.36719 -0.00913252 -6.48871
O -6.4371 5.93599 6.83832
H -6.55621 6.44508 6.03653
H -6.48697 6.58232 7.5426
O -7.3092 -1.57997 12.6066
H -7.5472 -0.653385 12.6385
H -7.95783 -2.01359 13.1611
O 10.0918 -0.0294173 -10.1256
H 9.3774 -0.561686 -10.4757
H -9.47399 -0.665276 -9.77236
O 1.78357 -8.41195 12.9388
H 1.11112 -7.73248 12.8901
H 2.58403 -7.94123 13.1709
O 1.46413 0.913836 -6.91889
H 0.742455 1.06476 -6.30845
H 1.21858 0.116672 -7.38842
O -2.45006 -9.04355 2.89579
H -2.68359 -9.18921 1.97901
H -2.22553 -8.11418 2.9415
O 9.61089 -4.4611 -18.3148
H 9.2059 -3.60218 -18.4351
H 9.02507 -5.06811 -18.7671
O 0.346532 -9.86688 -2.21088
H 0.865093 -9.27944 -2.76065
H -0.310463 -9.29994 -1.80695
O 2.09575 7.80138 -21.3573
H 2.51549 7.03489 -20.9668
H 1.24803 7.48025 -21.6647
O -6.05898 -2.41144 0.990656
H -6.70475 -2.81191 0.408556
H -5.71176 -3.14189 1.50262
O -5.33843 -0.255345 -18.3869
H -4.60798 0.172429 -17.94
H -5.69947 0.421811 -18.959
O -9.63668 0.955219 -3.69172
H 9.9221 0.237647 -3.76523
H -8.8933 0.678366 -4.22741
O 9.0762 -1.01366 2.83564
H 8.32955 -1.03636 3.43416
H 9.70811 -1.62316 3.217
O -1.77495 6.99891 -4.39438
H -2.19507 7.75742 -4.79983
H -0.903945 7.31017 -4.14801
O -1.14635 7.17085 8.84677
H -1.6504 7.87835 9.24876
H -0.395102 7.05127 9.42777
O 4.9736 2.26586 9.85811
H 4.20386 2.63764 9.4274
H 4.70814 2.1562 10.7712
O 0.100162 -8.03123 -7.90604
H 0.269422 -7.20114 -8.3516
H 0.81696 -8.11672 -7.27745
O -2.16601 2.50288 -0.929591
H -1.79016 2.05268 -0.173089
H -2.02717 3.43257 -0.748963
O 4.16837 1.99215 12.8433
H 4.7708 1.25311 12.9277
H 4.66659 2.74535 13.1606
O -6.93475 8.4609 4.73796
H -6.00304 8.67953 4.71919
H -7.10434 8.05973 3.88559
O -1.03235 -6.54525 -13.6322
H -1.58154 -5.90199 -13.1841
H -0.356475 -6.77067 -12.993
O -5.50946 -5.51121 -6.3087
H -6.18204 -5.0049 -5.85315
H -4.7582 -4.92032 -6.36052
O -1.95759 -3.88118 12.7468
H -1.39817 -3.17212 13.0638
H -1.93272 -3.79856 11.7935
O -5.93473 -7.8625 12.5746
H -5.23748 -7.2258 12.7318
H -6.74407 -7.37436 12.726
O 2.4393 3.44878 -21.6837
H 3.07734 2.73525 -21.6808
H 1.67097 3.08192 -22.1211
O -2.1351 4.25897 13.0205
H -2.62296 3.47604 13.276
H -2.80951 4.91432 12.8419
O 2.01992 3.99441 12.5905
H 1.35016 3.38262 12.896
H 2.84323 3.51514 12.6837
O 8.99261 -5.3535 2.44477
H 8.21504 -5.2692 1.89294
H 9.50138 -6.05434 2.0371
O 8.1908 -5.89382 -3.02452
H 9.0593 -6.09927 -2.67847
H 8.25991 -6.06541 -3.96367
O 2.02071 0.228253 12.8
H 1.27719 0.831047 12.7938
H 2.78481 0.790959 12.9255
O 6.21596 8.17281 11.9844
H 7.1387 7.95379 12.1141
H 6.08608 8.11403 11.0379
O -0.122391 -4.35674 0.841301
H -0.0694019 -3.56302 1.37368
H 0.464333 -4.19046 0.103508
O -6.10291 -8.07658 -5.11806
H -5.81947 -7.27359 -5.55521
H -6.36878 -8.65705 -5.83122
O -1.48864 -4.484 5.886
H -1.49182 -5.40813 6.13542
H -1.72357 -4.01805 6.68845
O 5.67391 8.10494 -21.2425
H 5.11821 7.36026 -21.4725
H 5.20927 8.53921 -20.5271
O -1.65729 4.3103 -13.4801
H -1.59037 5.14626 -13.0187
H -0.961436 3.77178 -13.1033
O -4.57312 -6.35916 -1.6997
H -3.72319 -6.19625 -1.29065
H -4.71462 -5.60251 -2.26863
O 3.95391 4.00081 -2.11234
H 4.04327 4.52062 -1.31357
H 4.59317 3.29541 -2.01239
O -8.36788 9.37681 6.80132
H -7.57327 9.18204 6.30444
H -8.97061 8.66761 6.57775
O 2.69813 8.08533 -13.7917
H 1.94121 8.18056 -14.3698
H 2.37736 8.35265 -12.9303
O -2.23732 -7.57816 -21.8427
H -2.10353 -8.30287 -22.4535
H -2.45932 -8.00127 -21.0132
O -0.797321 -9.70614 -11.8325
H -0.490007 -8.80347 -11.7489
H -1.6489 -9.71117 -11.3955
O -2.1924 4.34759 -5.33987
H -3.13668 4.39105 -5.18928
H -1.88077 5.23611 -5.1677
O 5.38333 9.19499 -0.337685
H 5.14118 -9.87988 -0.533477
H 6.09209 9.26906 0.301379
O -9.86505 -7.09176 -2.21227
H -9.13223 -7.12711 -1.59748
H -9.81306 -7.91651 -2.69531
O 5.50524 -6.85045 -13.995
H 5.7982 -7.18461 -14.8428
H 4.56365 -7.02211 -13.9818
O -3.91838 0.140589 8.92196
H -3.76123 0.0457287 7.98253
H -3.88987 1.0849 9.0759
O -5.88243 -8.27543 -10.9164
H -5.30536 -8.21677 -11.6778
H -6.66788 -7.79212 -11.1727
O -6.27713 -4.17064 12.1493
H -6.92301 -3.48345 11.9855
H -6.79862 -4.95864 12.3021
O -7.16058 -2.03106 8.86255
H -7.3025 -1.4794 9.63181
H -6.23742 -1.90448 8.64348
O 0.957279 -2.84247 -15.9732
H 0.512322 -2.00925 -16.1281
H 0.585987 -3.43751 -16.6246
O 8.83356 8.05993 -9.16673
H 8.14804 7.45075 -9.44097
H 9.54709 7.498 -8.86449
O 3.18329 -8.36295 -14.7494
H 3.49252 -9.09447 -15.2837
H 3.25092 -8.67854 -13.8482
O -5.05336 -2.91159 -16.8389
H -5.03673 -2.09461 -17.3374
H -5.20766 -2.63792 -15.9348
O 9.96499 -9.19266 -14.1601
H -9.31299 -9.34277 -13.904
H 9.45661 -9.41306 -13.3796
O 1.38218 5.4362 -19.9183
H 0.798824 5.1499 -19.2155
H 1.51468 4.65397 -20.4539
O -8.93407 1.72845 -19.1214
H -8.31068 1.3893 -18.4791
H -9.78894 1.44002 -18.8016
O -6.74975 6.19008 -12.8086
H -5.79724 6.21697 -12.7179
H -7.01076 5.38482 -12.3618
O -2.93577 5.95029 -1.72961
H -3.08752 5.70546 -2.64244
H -3.79217 5.86064 -1.31155
O -2.45881 -0.463609 1.14762
H -2.93814 0.232398 1.59712
H -2.03951 -0.959186 1.85106
O 5.93321 1.9392 -15.0793
H 5.77108 1.00685 -15.2231
H 6.10296 2.01126 -14.1401
O 0.378262 -9.59149 -20.8194
H 1.27529 -9.30729 -20.6439
H 0.259965 9.614 -20.2695
O 7.60074 -7.3827 12.5996
H 8.10695 -8.06007 12.1511
H 6.69089 -7.66795 12.5157
O -3.67242 -0.958968 -9.08047
H -3.0434 -1.58852 -9.43292
H -4.33397 -0.870923 -9.76665
O 3.25109 -7.55288 -21.5505
H 3.50922 -8.28248 -20.9872
H 3.09929 -7.95284 -22.4068
O -7.82019 -2.8607 -12.1259
H -8.73843 -3.07152 -11.9568
H -7.83841 -2.33177 -12.9235
O 3.11214 3.67452 8.51368
H 2.89239 3.67648 7.58205
H 2.30938 3.95955 8.95021
O -0.238584 9.3653 0.572529
H -0.0613243 9.5657 -0.346521
H -0.885546 8.66042 0.543999
O 0.141822 3.9843 -17.9506
H -0.448021 3.244 -18.0929
H -0.295426 4.5149 -17.2846
O -9.08761 1.62551 -12.0111
H -9.33223 1.35001 -11.1276
H -9.22986 0.849136 -12.5526
O 5.90796 1.85423 -12.1406
H 5.10053 2.06812 -11.6731
H 6.13372 0.974154 -11.8393
O -3.67271 2.6728 -12.1633
H -3.11059 3.30822 -12.6066
H -3.95369 3.11768 -11.3637
O -1.90876 3.19123 -16.0483
H -1.0827 2.71021 -16.0981
H -1.92411 3.55052 -15.1612
O 9.81008 7.36102 10.1288
H -9.47578 7.681 10.1273
H 9.89048 6.41582 10.0009
O 5.90316 4.23304 12.8515
H 5.80889 4.88002 12.1524
H 5.63636 4.69678 13.6452
O -7.62726 -8.49637 8.17082
H -7.63174 -7.84975 7.46507
H -8.02759 -9.27553 7.78498
O 3.40196 -9.32429 -12.1248
H 3.59432 -8.71715 -11.4102
H 2.76229 -9.93363 -11.7563
O 4.67307 4.51623 0.431265
H 5.53823 4.91827 0.353235
H 4.06131 5.25017 0.373848
O 3.69274 -4.5198 10.5345
H 4.59925 -4.81167 10.6309
H 3.46339 -4.16181 11.3921
O 6.43383 -5.903 -10.8487
H 5.92018 -5.37783 -11.4624
H 6.75957 -6.63455 -11.3731
O 5.87466 7.34263 3.56469
H 5.1836 7.04882 4.15827
H 6.06939 6.57637 3.0251
O 5.34026 1.88372 -8.08965
H 6.21325 1.704 -8.43868
H 4.94967 2.4889 -8.72007
O -5.67642 8.38332 -11.1422
H -6.18786 8.97949 -10.5952
H -6.11243 8.40556 -11.994
O -9.1547 -7.08968 -18.6912
H -9.4301 -7.45861 -17.852
H -8.82911 -6.21614 -18.4741
O -2.02008 7.48476 12.3044
H -2.8037 6.94256 12.2139
H -1.34549 6.88144 12.6161
O -1.29283 7.22972 -13.1058
H -1.53603 7.51691 -12.2257
H -0.596985 7.83123 -13.3708
O 4.27015 -8.23996 -1.38611
H 3.60721 -7.72144 -0.930176
H 4.93629 -7.60335 -1.64537
O 8.02036 8.5074 -19.2542
H 7.56511 7.6654 -19.2591
H 8.57723 8.4746 -18.4763
O -8.09253 -0.300493 1.45165
H -8.11275 0.393358 2.11073
H -7.66437 -1.03571 1.89025
O -4.52405 2.27721 -6.79082
H -5.2832 2.45214 -6.23465
H -4.18682 1.43726 -6.47937
O 1.16054 -5.17392 4.23181
H 1.87395 -4.65927 4.60917
H 0.37946 -4.63776 4.36849
O -3.33396 -7.29193 -15.2865
H -2.49132 -7.02797 -14.917
H -3.97739 -7.02981 -14.6281
O 0.386702 -5.04054 -17.4874
H -0.554151 -4.8646 -17.496
H 0.455136 -5.98653 -17.6164
O 8.44708 -2.28065 -9.25291
H 7.8 -2.98579 -9.23622
H 8.3785 -1.87153 -8.39026
O 9.81373 0.10656 11.1384
H -9.65274 -0.0730142 11.7412
H 9.58796 1.02253 11.3004
O -2.67746 -5.2012 -0.109578
H -1.92181 -5.16205 0.476683
H -2.67668 -4.356 -0.558865
O 0.772958 6.59603 6.87235
H 0.216982 6.28178 6.15935
H 0.195606 6.61689 7.63554
O -5.53845 -8.51056 1.1981
H -4.59312 -8.60126 1.07835
H -5.63918 -8.22767 2.10698
O -3.31912 -5.19216 3.83676
H -3.22527 -4.95493 4.75933
H -2.4333 -5.42306 3.55703
O 6.03723 -9.98552 13.9621
H 6.75678 -9.91433 14.5893
H 6.34682 9.36346 13.3123
O 7.82623 2.19564 12.5567
H 7.83089 2.17473 11.5998
H 7.57587 3.09314 12.7759
O 9.16439 -9.00681 -8.52573
H 9.06478 -9.88291 -8.89824
H 8.94746 -9.11374 -7.59958
O 9.19977 9.34071 -11.7119
H 9.15965 8.49832 -12.1647
H 8.32939 9.4488 -11.3285
O -8.25211 -6.63321 6.00097
H -7.81119 -6.11326 6.67289
H -9.18149 -6.43472 6.11535
O -7.71733 1.39783 12.6784
H -8.41333 1.52316 13.3234
H -7.96893 1.95574 11.9424
O 5.44014 -2.03543 9.85824
H 6.33286 -1.7117 9.97855
H 5.34552 -2.72736 10.5128
O 1.56536 -7.176 -0.180559
H 0.626568 -7.22555 -0.360663
H 1.87058 -6.43261 -0.700597
O -8.80858 6.66773 -4.6409
H -9.46576 7.04144 -5.228
H -9.25847 5.94231 -4.20778
O 3.17199 7.79454 7.48483
H 2.31743 7.43981 7.73004
H 3.42019 7.303 6.70188
O 9.54156 -3.70257 -11.4246
H -10.0669 -4.31976 -10.9781
H 9.21283 -3.13478 -10.7276
O -2.5265 0.744786 -14.2337
H -1.81048 0.293906 -13.7863
H -2.72652 1.49382 -13.6723
O -3.58393 -5.11626 -21.7016
H -4.18482 -5.41825 -21.0204
H -3.04517 -5.88143 -21.9028
O 2.4352 -3.30384 -4.81372
H 2.83824 -2.49844 -4.48949
H 2.09902 -3.73674 -4.02898
O 3.13134 2.91085 -18.2022
H 3.39718 2.05405 -17.8684
H 2.43943 3.19669 -17.6057
O 2.15391 -9.95305 -22.9693
H 1.32438 -9.71235 -22.5567
H 2.49537 9.31716 -22.4254
O -9.48684 -3.26161 3.19688
H -8.70743 -3.81552 3.15292
H 10.0152 -3.77856 2.77441
O -1.90897 9.5993 -22.4697
H -1.31605 8.92937 -22.8101
H -1.52193 9.86008 -21.634
O -0.973182 -6.33828 2.74817
H -0.71163 -5.79312 2.00613
H -0.287833 -6.19891 3.4017
O 2.88445 -1.37141 -11.5877
H 2.94036 -1.36667 -12.5433
H 1.9943 -1.07501 -11.3979
O -2.4877 -7.75388 -6.77819
H -2.91365 -8.50614 -7.18917
H -1.66456 -7.65339 -7.25628
O -8.94265 6.74283 -8.12327
H -8.33103 6.03875 -7.90785
H -8.61893 7.49974 -7.63487
O -2.15707 7.57864 -10.6145
H -1.62746 7.70062 -9.82655
H -3.02868 7.88817 -10.3681
O -4.21938 -2.27819 5.52074
H -4.37793 -3.11429 5.95895
H -5.08388 -1.99618 5.22181
O -4.77369 -6.20655 -13.0923
H -5.05827 -5.61312 -12.3973
H -5.58645 -6.56036 -13.4535
O -9.21879 4.12384 -15.8524
H -9.81591 4.48042 -16.5101
H -9.78728 3.86597 -15.1268
O 9.60918 2.77388 6.45696
H 9.38688 2.3784 5.6141
H 9.52661 2.05812 7.08712
O 6.74901 -1.07232 -6.93253
H 6.54839 -1.89718 -6.49027
H 7.58181 -0.792609 -6.55246
O -9.10643 -2.60391 6.72289
H -10.0015 -2.55102 7.05791
H -8.56117 -2.29073 7.44459
O 7.71329 -6.22946 -19.1296
H 8.17428 -6.23146 -19.9685
H 7.40764 -7.1301 -19.0216
O 5.3786 0.495665 -18.3935
H 5.72115 -0.149846 -19.0118
H 4.76381 0.00386724 -17.8491
O -1.17133 -7.2241 -1.89729
H -1.29884 -7.29885 -2.84301
H -1.62529 -6.41638 -1.65702
O -0.330503 -5.9513 12.9689
H -0.811035 -6.55007 12.3972
H -0.933833 -5.22262 13.1146
O -5.71011 6.07238 -9.61182
H -5.46814 5.42484 -10.2739
H -5.8284 6.8853 -10.1031
O -6.46352 1.42499 -3.73047
H -6.0147 0.720738 -3.26268
H -6.85504 1.96017 -3.04017
O -5.18275 3.27873 -16.4554
H -4.71095 2.53999 -16.84
H -5.25968 3.05739 -15.5273
O 2.2146 1.09087 4.11873
H 2.37483 0.788571 3.22477
H 1.26866 1.00302 4.23586
O 1.94019 0.177056 -21.619
H 1.24589 0.834346 -21.6652
H 2.72839 0.640191 -21.9027
O -6.70683 9.1299 -0.1476
H -6.52885 9.78898 0.523349
H -5.88401 9.05045 -0.630187
O 4.04249 3.77868 -10.1924
H 3.52051 3.97155 -9.41362
H 3.90824 4.53431 -10.7645
O -3.28896 5.67196 8.64508
H -3.87292 6.41572 8.79354
H -2.41002 6.05085 8.6568
O 6.06688 -6.17521 -1.5325
H 6.31753 -5.56961 -0.834894
H 6.79867 -6.14738 -2.14889
O -9.98552 1.98129 14.0048
H 9.94356 2.50161 14.7654
H 9.49376 2.10891 13.3742
O -3.08238 0.0483491 6.43033
H -3.16841 -0.805401 6.00613
H -2.78173 0.632858 5.73449
O 8.85878 8.26535 12.3814
H 9.19891 9.11543 12.6605
H 9.09576 8.20412 11.456
O -9.4715 2.98545 11.0131
H -9.71736 3.15405 10.1035
H -9.99338 3.60605 11.5217
O 8.02409 6.17271 -21.7552
H 7.63098 5.30007 -21.769
H 7.35335 6.7319 -21.3633
O 0.402844 -2.12403 12.8167
H 0.484577 -1.90033 11.8896
H 0.742084 -1.35777 13.2792
O 6.04865 -4.05791 -21.8402
H 6.72364 -4.7366 -21.8408
H 6.53323 -3.23757 -21.7483
O -0.490236 3.32042 -10.0673
H 0.0493961 3.60576 -9.33
H -1.22102 2.85274 -9.663
O -7.68816 5.81692 12.7963
H -8.0779 5.81205 13.6705
H -7.10422 5.0585 12.7896
O 1.62029 -8.914 1.97061
H 1.21149 -9.71453 1.64157
H 1.41919 -8.25233 1.30881
O 6.43856 4.90741 -2.94328
H 5.5984 4.50207 -3.15788
H 7.0899 4.34844 -3.36701
O -9.01536 -5.60466 -9.71214
H -9.69133 -6.22747 -9.97936
H -8.27538 -5.79102 -10.29
O -6.75832 9.94769 10.3132
H -7.31055 -9.54962 9.69815
H -7.37107 9.58808 10.9546
O 7.71344 8.57287 9.03111
H 8.57644 8.17363 9.14099
H 7.55529 8.54667 8.08743
O 1.0263 -2.95731 -13.0804
H 0.0843261 -2.93379 -12.912
H 1.10986 -2.73577 -14.0078
O 3.68915 -3.45328 -15.2831
H 2.75588 -3.32142 -15.45
H 3.91543 -4.23386 -15.7888
O -1.95066 -2.93512 -12.5344
H -2.56578 -2.20675 -12.62
H -1.86161 -3.06432 -11.5902
O -0.553194 0.19992 -5.04379
H 0.0876399 -0.0616784 -4.38264
H -1.40194 0.060267 -4.62384
O 9.55665 -4.41515 11.7653
H 9.47395 -5.19384 12.3158
H 9.7818 -4.75601 10.8996
O 5.97068 4.55809 7.4497
H 5.66104 4.8032 6.57776
H 5.38074 3.85654 7.72543
O -7.77002 -3.69756 -0.839118
H -8.30462 -3.4655 -1.59845
H -7.78567 -4.6544 -0.817997
O -8.26091 4.57228 4.68729
H -8.14339 4.75523 5.61947
H -7.44845 4.14056 4.42317
O -0.330687 -3.18733 -5.261
H 0.618994 -3.07018 -5.28578
H -0.552557 -3.15276 -4.33051
O 3.05225 6.56033 -3.66313
H 2.79453 5.72626 -4.05573
H 3.77074 6.87262 -4.21312
O 0.422375 -0.633033 -17.8757
H 1.16199 -0.624937 -18.4832
H -0.238461 -0.0817273 -18.2947
O 3.75385 1.9067 -5.82146
H 4.47949 2.17672 -6.38428
H 3.09684 1.56154 -6.42598
O -1.93678 7.76043 5.0397
H -1.32735 8.34861 4.59374
H -2.67935 8.31706 5.27418
O 3.7744 -4.73023 5.71948
H 4.51893 -4.21689 6.03315
H 4.13365 -5.60371 5.56391
O 1.26644 6.6362 -6.28331
H 1.96621 7.24999 -6.06011
H 0.963853 6.30013 -5.43967
O 3.17621 -6.42131 2.4695
H 3.0922 -7.30106 2.10179
H 2.35782 -6.28111 2.94575
O -4.33397 -8.25658 6.58946
H -4.59095 -8.48131 7.48371
H -3.52044 -7.76242 6.69055
O 3.61928 -3.93319 0.605837
H 3.4126 -4.20199 -0.289298
H 3.32372 -4.66317 1.14991
O -9.93341 -9.52129 13.0029
H -9.44764 -8.88195 13.524
H -9.26073 -9.98601 12.5052
O 0.513786 5.23788 1.64131
H -0.211817 5.72781 2.02822
H 1.29379 5.74304 1.87074
O -2.36091 1.32122 -9.14014
H -2.88762 0.523942 -9.08395
H -2.19571 1.56441 -8.2292
O -1.8823 6.18017 2.63562
H -2.31356 6.89111 2.16147
H -1.80843 6.50125 3.53433
O 8.23084 5.71867 5.78604
H 7.90997 5.08257 6.42529
H 8.57822 5.18578 5.07079
O -5.59598 7.57497 1.88871
H -6.36036 7.26352 2.37343
H -5.94248 8.24386 1.29816
O -4.14518 5.7302 -21.8659
H -3.82747 6.3839 -21.243
H -3.39221 5.15967 -22.02
O -3.87306 -6.81685 -17.9888
H -3.56634 -6.85092 -17.0827
H -4.82245 -6.92083 -17.9249
O 8.15184 -7.43423 8.63732
H 8.3252 -6.55096 8.31172
H 7.62575 -7.84415 7.95072
O 8.18452 1.33149 -21.5437
H 8.66819 0.54637 -21.8004
H 8.77256 2.05604 -21.7569
O 0.592252 -2.08967 2.70205
H 0.177683 -1.34331 3.13485
H 1.51806 -1.85242 2.64896
O -7.55911 1.77708 -21.3766
H -7.94102 1.88239 -20.5052
H -7.13736 2.61723 -21.5569
O 1.49186 8.68523 -11.1377
H 0.611269 9.0588 -11.1728
H 1.62438 8.46949 -10.2146
O 0.290749 -0.241636 -11.3693
H 0.279996 -0.192465 -10.4134
H -0.623403 -0.388188 -11.6123
O 2.29578 8.44491 -17.2842
H 1.46234 8.65059 -17.7077
H 2.65637 7.72462 -17.8013
O -4.66896 -2.55934 9.60569
H -4.53864 -1.61126 9.58545
H -4.90069 -2.75038 10.5145
O -2.43464 -4.43977 -17.1769
H -3.11767 -3.83026 -16.8972
H -2.90484 -5.24586 -17.3898
O 0.882262 -7.43877 -11.6938
H 1.83894 -7.42758 -11.7233
H 0.661594 -6.97596 -10.8855
O 4.55376 9.72877 5.90012
H 5.46049 9.4418 6.00836
H 4.04604 9.13273 6.45076
O -9.84111 -8.40123 -21.0486
H -9.9021 -8.0878 -20.1462
H -9.92128 -9.35246 -20.9782
O 7.01408 4.57122 -12.0923
H 7.72451 4.06089 -12.481
H 6.29575 3.9463 -11.9937
O -7.57789 5.49521 10.103
H -7.76746 5.62464 11.0323
H -7.18705 4.62264 10.057
O 1.89137 3.71423 5.84195
H 1.95095 2.92306 5.30648
H 1.04515 4.09727 5.61084
O -6.72833 5.19126 -3.3423
H -7.47898 5.47332 -3.86498
H -7.08422 4.53036 -2.74834
O 9.20787 8.23874 -6.25581
H 9.79561 8.35106 -7.00293
H 9.0652 9.12636 -5.92715
O 5.28765 0.257043 2.11724
H 4.72215 0.863624 1.63922
H 5.90984 -0.0582073 1.46171
O -9.24091 4.35926 -19.6383
H -9.10699 3.51554 -19.2065
H -9.80854 4.16038 -20.3829
O -5.96833 3.67605 12.8952
H -5.19461 3.11607 12.8318
H -6.58989 3.16841 13.4169
O 4.13704 6.38766 12.7807
H 3.30225 6.83261 12.9269
H 4.76368 7.09585 12.6322
O 5.53655 4.11339 4.27373
H 5.93642 4.14979 3.40482
H 5.37315 3.18228 4.4239
O 9.67691 7.75619 1.99352
H 10.0432 8.41751 2.58062
H 8.87325 8.15267 1.65711
O 0.348537 -6.46339 -21.7252
H 0.536708 -7.34151 -21.3939
H -0.555892 -6.51238 -22.0348
O 10.0564 8.70928 -17.3437
H -9.2483 8.42473 -17.5782
H 9.86599 8.25104 -16.5251
O -6.5629 4.15971 -21.8987
H -7.28678 4.77803 -21.7992
H -5.79863 4.71033 -22.0689
O 2.53475 7.40087 -8.5899
H 1.87308 7.11135 -7.96173
H 3.30824 7.5838 -8.05654
O -5.96881 0.721213 -13.0747
H -5.40424 1.41255 -12.7289
H -6.56107 1.17317 -13.6756
O 8.65179 -6.99291 -15.1278
H 8.07993 -7.27271 -15.8425
H 9.12142 -7.78662 -14.8714
O 3.32694 -1.7196 2.21521
H 3.54211 -2.61968 1.9707
H 4.17148 -1.3179 2.41921
O 3.40094 -8.29857 -9.44575
H 4.08503 -8.81995 -9.02573
H 2.96147 -7.85175 -8.72225
O -4.1571 -5.52536 12.8642
H -4.77274 -4.8334 12.6225
H -3.31652 -5.077 12.9572
O 8.06582 2.82669 -3.63808
H 7.86492 2.49902 -2.76144
H 8.99035 2.61511 -3.76734
O 6.94329 -2.81041 -15.9975
H 7.04874 -3.25201 -15.1548
H 6.45284 -3.43254 -16.5348
O 5.06624 -9.44406 -6.20846
H 5.68083 -9.56874 -5.48529
H 5.60555 -9.51272 -6.99628
O -5.36223 9.96366 -19.0859
H -5.51155 9.94412 -20.0312
H -5.83048 9.19802 -18.7531
O 8.82354 5.13063 -17.2165
H 8.48273 5.39111 -18.0723
H 8.41272 5.73669 -16.6
O 0.025724 2.49035 -12.3846
H -0.184677 2.98507 -11.5927
H 0.182882 1.59814 -12.0756
O -9.00651 -3.6306 -3.28097
H -8.78275 -4.46435 -3.69453
H -9.7386 -3.29496 -3.79829
O 3.0671 8.69806 -6.24717
H 3.90242 9.16343 -6.29086
H 2.56886 9.16195 -5.57427
O 1.07415 4.69301 10.0591
H 1.39591 4.39641 10.9105
H 1.01383 5.64457 10.1436
O 9.09512 4.30084 -8.8197
H 9.8 4.63654 -9.3735
H 9.42452 4.39873 -7.92631
O -9.82143 1.35308 3.22435
H 9.79126 0.673003 2.874
H -9.45535 0.970402 4.02171
O 2.2416 -4.42173 -11.0839
H 1.59757 -4.98284 -10.6519
H 1.71967 -3.8329 -11.6289
O 4.29335 -0.88456 7.1368
H 4.92251 -1.04774 7.83948
H 3.43799 -0.940385 7.56278
O -4.48249 -8.87811 9.43944
H -3.94884 -9.65592 9.27677
H -5.31415 -9.22166 9.76588
O -4.20086 9.45572 4.99964
H -4.32342 -9.80827 5.62296
H -3.52564 9.7727 4.39977
O -4.6139 -4.66707 7.07491
H -5.54867 -4.7358 7.26911
H -4.19475 -5.2581 7.7004
O -8.7045 -7.56568 -6.74123
H -9.32034 -7.63173 -7.47103
H -7.84085 -7.585 -7.15351
O 1.15108 -1.35802 7.23646
H 1.76916 -1.27176 6.51067
H 1.38109 -2.1901 7.64994
O 0.975843 0.689336 9.03615
H 1.01405 0.0140017 8.35888
H 1.87688 0.765666 9.35005
O -5.91403 1.78926 -10.1291
H -6.62718 1.60134 -9.51888
H -5.25173 2.2291 -9.59603
O 9.86285 8.58108 -21.7192
H 9.104 8.81811 -22.2523
H 9.48915 8.26947 -20.8949
O -3.60686 3.88258 1.81842
H -2.9064 3.31551 2.14094
H -3.26065 4.76981 1.91422
O -8.65706 9.25048 -7.10581
H -8.28879 9.21261 -6.2231
H -8.86385 -9.80462 -7.24009
O -0.688677 2.68086 9.8575
H -0.0656732 2.15816 9.35264
H -0.223825 3.49726 10.0409
O -6.06416 0.982889 5.6754
H -5.1833 0.658357 5.86245
H -5.92314 1.8313 5.25522
O -4.75363 2.44381 -0.352622
H -4.45767 2.80644 0.482329
H -3.95756 2.10664 -0.763493
O 6.11443 -8.00691 -21.5826
H 6.22581 -8.67642 -22.2576
H 5.37333 -7.48207 -21.8852
O 8.58184 0.776778 -18.804
H 8.32171 1.47823 -18.2069
H 8.13207 0.980528 -19.624
O 6.48698 9.59341 2.28871
H 5.78049 -9.80604 2.57165
H 6.35162 8.78895 2.78946