LAMMPS data file via write_data, version 29 Sep 2021, timestep = 10

1748 atoms
3 atom types
948 bonds
1 bond types
474 angles
1 angle types

-10.094 10.094 xlo xhi
-9.99 9.99 ylo yhi
-34.912 18.785 zlo zhi

Masses

1 1.008
2 15.999
3 197

PairIJ Coeffs # lj/charmmfsw/coul/long

1 1 0.046 0.400014 0.046 0.400014
1 2 0.0836457 1.77529 0.0836457 1.77529
1 3 0.493295 1.51451 0.493295 1.51451
2 2 0.1521 3.15057 0.1521 3.15057
2 3 0.897 2.88979 0.897 2.88979
3 3 5.29 2.629 5.29 2.629

Bond Coeffs # harmonic

1 450 0.9572

Angle Coeffs # charmm

1 55 104.52 0 0

Atoms # full

1162 388 2 -0.834 -1.6997272282 -8.6743724413 -34.8454002033 0 0 1
1448 0 3 0 -8.324590890848631 0 -32.963698149327854 0 0 0
1481 0 3 0 -0.8324590890848622 -1.4418614375174883 -32.963698149327854 0 0 0
1493 0 3 0 -5.827213623594041 -1.44186143751749 -32.96369814932785 0 0 0
1494 0 3 0 -3.329836356339454 -2.8837228750349784 -32.963698149327854 0 0 0
1495 0 3 0 -5.827213623594043 -4.325584312552467 -32.963698149327854 0 0 0
1496 0 3 0 -3.3298363563394524 0 -32.96369814932785 0 0 0
1498 0 3 0 -1.664918178169728 0 -30.60914828151872 0 0 0
1499 0 3 0 -4.162295445424315 -1.4418614375174883 -30.60914828151872 0 0 0
1511 0 3 0 -8.324590890848631 -5.767445750069955 -32.963698149327854 0 0 0
1512 0 3 0 -8.324590890848631 -2.8837228750349784 -32.963698149327854 0 0 0
1513 0 3 0 -9.157049979933495 -1.44186143751749 -30.609148281518717 0 0 0
1514 0 3 0 -6.659672712678905 -2.8837228750349784 -30.60914828151872 0 0 0
1515 0 3 0 -9.157049979933497 -4.325584312552467 -30.60914828151872 0 0 0
1516 0 3 0 -6.659672712678903 0 -30.609148281518717 0 0 0
1518 0 3 0 -4.994754534509179 0 -28.254598413709587 0 0 0
1519 0 3 0 -7.492131801763769 -1.4418614375174883 -28.254598413709587 0 0 0
1531 0 3 0 -9.989509069018359 -2.8837228750349784 -28.254598413709587 0 0 0
1532 0 3 0 -9.989509069018357 0 -28.254598413709584 0 0 0
1561 0 3 0 -0.8324590890848622 -4.325584312552467 -32.96369814932785 0 0 0
1563 0 3 0 -0.832459089084864 -7.209307187587445 -32.963698149327854 0 0 0
1583 0 3 0 -5.827213623594041 -7.209307187587443 -32.96369814932785 0 0 0
1584 0 3 0 -3.329836356339454 -8.651168625104933 -32.96369814932785 0 0 0
1585 0 3 0 -3.329836356339454 -5.767445750069955 -32.96369814932785 0 0 0
1586 0 3 0 -4.162295445424315 -4.325584312552467 -30.609148281518713 0 0 0
1587 0 3 0 -1.664918178169728 -5.767445750069957 -30.60914828151872 0 0 0
1588 0 3 0 -4.162295445424316 -7.209307187587445 -30.60914828151872 0 0 0
1589 0 3 0 -1.6649181781697262 -2.8837228750349766 -30.609148281518713 0 0 0
1590 0 3 0 -2.4973772672545884 -1.4418614375174883 -28.254598413709587 0 0 0
1591 0 3 0 -1.7763568394002505e-15 -2.8837228750349784 -28.254598413709587 0 0 0
1592 0 3 0 -2.4973772672545884 -4.325584312552467 -28.254598413709587 0 0 0
1606 0 3 0 -8.324590890848631 -8.651168625104932 -32.96369814932785 0 0 0
1607 0 3 0 -9.157049979933495 -7.209307187587443 -30.609148281518713 0 0 0
1608 0 3 0 -6.659672712678905 -8.651168625104933 -30.60914828151872 0 0 0
1609 0 3 0 -6.659672712678905 -5.767445750069955 -30.60914828151872 0 0 0
1610 0 3 0 -7.492131801763769 -4.325584312552467 -28.254598413709587 0 0 0
1611 0 3 0 -4.994754534509179 -5.767445750069957 -28.254598413709587 0 0 0
1612 0 3 0 -7.492131801763771 -7.209307187587445 -28.254598413709587 0 0 0
1613 0 3 0 -4.994754534509177 -2.8837228750349766 -28.254598413709587 0 0 0
1626 0 3 0 -9.989509069018359 -8.651168625104933 -28.254598413709587 0 0 0
1627 0 3 0 -9.989509069018359 -5.767445750069955 -28.254598413709587 0 0 0
1675 0 3 0 -1.6649181781697289 -8.651168625104933 -30.609148281518717 0 0 0
1676 0 3 0 -2.4973772672545893 -7.209307187587445 -28.254598413709584 0 0 0
1677 0 3 0 -8.881784197001252e-16 -8.651168625104933 -28.254598413709587 0 0 0
1678 0 3 0 -8.881784197001252e-16 -5.767445750069955 -28.254598413709584 0 0 0
1691 0 3 0 -4.9947545345091795 -8.651168625104933 -28.254598413709587 0 0 0
1480 0 3 0 1.6649181781697244 0 -32.963698149327854 0 0 0
1546 0 3 0 9.157049979933495 -1.44186143751749 -32.96369814932785 0 0 0
1547 0 3 0 4.162295445424316 -1.4418614375174883 -32.96369814932785 0 0 0
1548 0 3 0 6.659672712678907 -2.8837228750349784 -32.963698149327854 0 0 0
1549 0 3 0 4.162295445424316 -4.325584312552467 -32.96369814932785 0 0 0
1550 0 3 0 6.659672712678908 0 -32.96369814932785 0 0 0
1552 0 3 0 8.324590890848633 0 -30.60914828151872 0 0 0
1553 0 3 0 5.827213623594043 -1.44186143751749 -30.60914828151872 0 0 0
1562 0 3 0 1.6649181781697244 -5.767445750069957 -32.96369814932785 0 0 0
1564 0 3 0 1.6649181781697262 -2.8837228750349766 -32.96369814932785 0 0 0
1565 0 3 0 0.832459089084864 -1.4418614375174883 -30.60914828151872 0 0 0
1566 0 3 0 3.3298363563394506 -2.8837228750349784 -30.60914828151872 0 0 0
1567 0 3 0 0.832459089084864 -4.325584312552467 -30.60914828151872 0 0 0
1568 0 3 0 3.3298363563394524 0 -30.609148281518713 0 0 0
1570 0 3 0 4.994754534509177 0 -28.254598413709587 0 0 0
1571 0 3 0 2.49737726725459 -1.44186143751749 -28.254598413709587 0 0 0
1593 0 3 0 0 0 -28.254598413709587 0 0 0
1640 0 3 0 9.157049979933493 -4.325584312552467 -32.963698149327854 0 0 0
1641 0 3 0 9.157049979933497 -7.209307187587444 -32.96369814932785 0 0 0
1642 0 3 0 4.1622954454243155 -7.209307187587445 -32.963698149327854 0 0 0
1643 0 3 0 6.6596727126789075 -8.651168625104933 -32.963698149327854 0 0 0
1644 0 3 0 6.6596727126789075 -5.767445750069955 -32.963698149327854 0 0 0
1645 0 3 0 5.827213623594042 -4.325584312552467 -30.609148281518717 0 0 0
1646 0 3 0 8.324590890848633 -5.767445750069956 -30.60914828151872 0 0 0
1647 0 3 0 5.8272136235940435 -7.209307187587444 -30.609148281518717 0 0 0
1648 0 3 0 8.324590890848633 -2.8837228750349784 -30.609148281518717 0 0 0
1649 0 3 0 7.492131801763768 -1.4418614375174883 -28.254598413709584 0 0 0
1650 0 3 0 9.98950906901836 -2.8837228750349775 -28.254598413709587 0 0 0
1651 0 3 0 7.49213180176377 -4.325584312552468 -28.254598413709587 0 0 0
1652 0 3 0 9.989509069018357 0 -28.254598413709587 0 0 0
1655 0 3 0 1.6649181781697235 -8.651168625104933 -32.963698149327854 0 0 0
1656 0 3 0 0.8324590890848631 -7.209307187587445 -30.609148281518717 0 0 0
1657 0 3 0 3.3298363563394515 -8.651168625104933 -30.609148281518717 0 0 0
1658 0 3 0 3.3298363563394515 -5.767445750069955 -30.609148281518717 0 0 0
1659 0 3 0 2.4973772672545893 -4.325584312552467 -28.254598413709587 0 0 0
1660 0 3 0 4.994754534509178 -5.767445750069956 -28.254598413709587 0 0 0
1661 0 3 0 2.497377267254591 -7.209307187587444 -28.254598413709587 0 0 0
1662 0 3 0 4.994754534509178 -2.8837228750349784 -28.254598413709584 0 0 0
1713 0 3 0 8.324590890848635 -8.651168625104933 -30.609148281518717 0 0 0
1714 0 3 0 7.492131801763769 -7.209307187587444 -28.254598413709584 0 0 0
1715 0 3 0 9.989509069018359 -8.651168625104933 -28.254598413709587 0 0 0
1716 0 3 0 9.98950906901836 -5.767445750069956 -28.254598413709584 0 0 0
1719 0 3 0 4.994754534509179 -8.651168625104933 -28.254598413709584 0 0 0
1423 0 3 0 -3.329836356339454 8.651168625104933 -32.96369814932785 0 0 0
1424 0 3 0 -5.827213623594041 7.209307187587443 -32.96369814932785 0 0 0
1425 0 3 0 -8.324590890848631 5.767445750069955 -32.96369814932785 0 0 0
1426 0 3 0 -8.324590890848631 8.651168625104932 -32.963698149327854 0 0 0
1427 0 3 0 -6.659672712678905 8.651168625104933 -30.609148281518717 0 0 0
1428 0 3 0 -9.157049979933495 7.209307187587443 -30.609148281518717 0 0 0
1429 0 3 0 -9.989509069018359 8.651168625104933 -28.254598413709587 0 0 0
1432 0 3 0 -0.832459089084864 7.209307187587445 -32.963698149327854 0 0 0
1434 0 3 0 -0.8324590890848622 4.325584312552467 -32.963698149327854 0 0 0
1438 0 3 0 -5.827213623594043 4.325584312552467 -32.963698149327854 0 0 0
1439 0 3 0 -3.329836356339454 2.8837228750349784 -32.963698149327854 0 0 0
1440 0 3 0 -5.827213623594041 1.44186143751749 -32.963698149327854 0 0 0
1441 0 3 0 -3.329836356339454 5.767445750069955 -32.963698149327854 0 0 0
1442 0 3 0 -4.162295445424316 7.209307187587445 -30.609148281518717 0 0 0
1443 0 3 0 -1.664918178169728 5.767445750069957 -30.609148281518717 0 0 0
1444 0 3 0 -4.162295445424315 4.325584312552467 -30.609148281518717 0 0 0
1445 0 3 0 -1.6649181781697298 8.651168625104933 -30.60914828151872 0 0 0
1446 0 3 0 -1.7763568394002505e-15 8.651168625104933 -28.254598413709587 0 0 0
1447 0 3 0 -2.4973772672545893 7.209307187587445 -28.254598413709587 0 0 0
1449 0 3 0 -8.324590890848631 2.8837228750349784 -32.963698149327854 0 0 0
1450 0 3 0 -9.157049979933497 4.325584312552467 -30.60914828151872 0 0 0
1451 0 3 0 -6.659672712678905 2.8837228750349784 -30.609148281518717 0 0 0
1452 0 3 0 -9.157049979933495 1.44186143751749 -30.609148281518717 0 0 0
1453 0 3 0 -6.659672712678905 5.767445750069955 -30.60914828151872 0 0 0
1454 0 3 0 -7.492131801763771 7.209307187587445 -28.254598413709587 0 0 0
1455 0 3 0 -4.994754534509179 5.767445750069957 -28.254598413709587 0 0 0
1456 0 3 0 -7.492131801763769 4.325584312552467 -28.254598413709587 0 0 0
1457 0 3 0 -4.9947545345091795 8.651168625104933 -28.254598413709587 0 0 0
1460 0 3 0 -9.989509069018359 2.8837228750349784 -28.254598413709587 0 0 0
1461 0 3 0 -9.989509069018359 5.767445750069955 -28.254598413709587 0 0 0
1479 0 3 0 -0.8324590890848622 1.4418614375174883 -32.963698149327854 0 0 0
1497 0 3 0 -4.162295445424315 1.4418614375174883 -30.609148281518717 0 0 0
1500 0 3 0 -1.6649181781697262 2.8837228750349766 -30.609148281518717 0 0 0
1501 0 3 0 -2.4973772672545884 4.325584312552467 -28.254598413709584 0 0 0
1502 0 3 0 -1.7763568394002505e-15 2.8837228750349784 -28.254598413709587 0 0 0
1503 0 3 0 -2.4973772672545884 1.4418614375174883 -28.254598413709587 0 0 0
1504 0 3 0 -1.7763568394002505e-15 5.767445750069955 -28.254598413709587 0 0 0
1517 0 3 0 -7.492131801763769 1.4418614375174883 -28.254598413709587 0 0 0
1520 0 3 0 -4.994754534509177 2.8837228750349766 -28.254598413709587 0 0 0
1421 474 1 0.417 3.258723027 8.3708821854 -34.713779878400004 0 0 1
1430 0 3 0 6.659672712678907 8.651168625104933 -32.963698149327854 0 0 0
1431 0 3 0 4.162295445424315 7.209307187587445 -32.963698149327854 0 0 0
1433 0 3 0 1.6649181781697244 5.767445750069957 -32.963698149327854 0 0 0
1435 0 3 0 1.6649181781697227 8.651168625104933 -32.963698149327854 0 0 0
1436 0 3 0 3.3298363563394506 8.651168625104933 -30.609148281518717 0 0 0
1437 0 3 0 0.8324590890848622 7.209307187587445 -30.609148281518717 0 0 0
1467 0 3 0 9.157049979933495 7.209307187587444 -32.96369814932785 0 0 0
1468 0 3 0 9.157049979933493 4.325584312552467 -32.963698149327854 0 0 0
1469 0 3 0 4.162295445424316 4.325584312552467 -32.96369814932785 0 0 0
1470 0 3 0 6.659672712678907 2.8837228750349784 -32.963698149327854 0 0 0
1471 0 3 0 4.162295445424316 1.4418614375174883 -32.963698149327854 0 0 0
1472 0 3 0 6.659672712678907 5.767445750069955 -32.963698149327854 0 0 0
1473 0 3 0 5.827213623594043 7.209307187587444 -30.609148281518717 0 0 0
1474 0 3 0 8.324590890848633 5.767445750069956 -30.60914828151872 0 0 0
1475 0 3 0 5.827213623594041 4.325584312552467 -30.60914828151872 0 0 0
1476 0 3 0 8.324590890848635 8.651168625104933 -30.609148281518717 0 0 0
1477 0 3 0 9.98950906901836 8.651168625104933 -28.254598413709587 0 0 0
1478 0 3 0 7.492131801763769 7.209307187587444 -28.254598413709587 0 0 0
1482 0 3 0 1.6649181781697262 2.8837228750349766 -32.96369814932785 0 0 0
1483 0 3 0 0.832459089084864 4.325584312552467 -30.609148281518717 0 0 0
1484 0 3 0 3.3298363563394506 2.8837228750349784 -30.60914828151872 0 0 0
1485 0 3 0 0.832459089084864 1.4418614375174883 -30.60914828151872 0 0 0
1486 0 3 0 3.3298363563394506 5.767445750069955 -30.609148281518717 0 0 0
1487 0 3 0 2.49737726725459 7.209307187587444 -28.254598413709587 0 0 0
1488 0 3 0 4.994754534509177 5.767445750069956 -28.254598413709587 0 0 0
1489 0 3 0 2.4973772672545884 4.325584312552467 -28.254598413709587 0 0 0
1490 0 3 0 4.994754534509179 8.651168625104933 -28.254598413709584 0 0 0
1545 0 3 0 9.157049979933495 1.44186143751749 -32.96369814932785 0 0 0
1551 0 3 0 5.827213623594043 1.44186143751749 -30.609148281518713 0 0 0
1554 0 3 0 8.324590890848633 2.8837228750349784 -30.60914828151872 0 0 0
1555 0 3 0 7.492131801763769 4.325584312552468 -28.254598413709587 0 0 0
1556 0 3 0 9.989509069018359 2.8837228750349775 -28.254598413709587 0 0 0
1557 0 3 0 7.492131801763767 1.4418614375174883 -28.254598413709587 0 0 0
1558 0 3 0 9.98950906901836 5.767445750069956 -28.254598413709587 0 0 0
1569 0 3 0 2.49737726725459 1.44186143751749 -28.254598413709587 0 0 0
1572 0 3 0 4.994754534509177 2.8837228750349784 -28.254598413709587 0 0 0
1533 0 3 0 -8.324590890848633 0 -25.900048545900454 0 0 0
1596 0 3 0 -0.8324590890848622 -1.44186143751749 -25.900048545900454 0 0 0
1614 0 3 0 -5.827213623594043 -1.4418614375174883 -25.900048545900454 0 0 0
1615 0 3 0 -3.3298363563394524 -2.8837228750349784 -25.900048545900454 0 0 0
1616 0 3 0 -5.827213623594043 -4.325584312552467 -25.900048545900454 0 0 0
1617 0 3 0 -3.3298363563394506 0 -25.900048545900454 0 0 0
1619 0 3 0 -1.6649181781697262 0 -23.54549867809132 0 0 0
1620 0 3 0 -4.162295445424316 -1.44186143751749 -23.54549867809132 0 0 0
1628 0 3 0 -8.324590890848633 -5.767445750069957 -25.900048545900454 0 0 0
1629 0 3 0 -8.324590890848631 -2.8837228750349766 -25.900048545900454 0 0 0
1630 0 3 0 -9.157049979933493 -1.4418614375174883 -23.54549867809132 0 0 0
1631 0 3 0 -6.659672712678907 -2.8837228750349784 -23.54549867809132 0 0 0
1632 0 3 0 -9.157049979933493 -4.325584312552467 -23.54549867809132 0 0 0
1633 0 3 0 -6.659672712678905 0 -23.54549867809132 0 0 0
1635 0 3 0 -4.99475453450918 0 -21.190948810282187 0 0 0
1636 0 3 0 -7.492131801763768 -1.44186143751749 -21.190948810282187 0 0 0
1638 0 3 0 -9.989509069018359 -2.8837228750349784 -21.190948810282187 0 0 0
1639 0 3 0 -9.989509069018357 0 -21.190948810282187 0 0 0
1679 0 3 0 -0.8324590890848631 -4.325584312552467 -25.900048545900454 0 0 0
1681 0 3 0 -0.8324590890848613 -7.209307187587444 -25.900048545900454 0 0 0
1692 0 3 0 -5.8272136235940435 -7.209307187587445 -25.900048545900454 0 0 0
1693 0 3 0 -3.3298363563394515 -8.651168625104933 -25.900048545900454 0 0 0
1694 0 3 0 -3.3298363563394515 -5.767445750069955 -25.900048545900454 0 0 0
1695 0 3 0 -4.162295445424317 -4.325584312552467 -23.545498678091324 0 0 0
1696 0 3 0 -1.6649181781697253 -5.767445750069956 -23.54549867809132 0 0 0
1697 0 3 0 -4.1622954454243155 -7.209307187587444 -23.54549867809132 0 0 0
1698 0 3 0 -1.6649181781697253 -2.8837228750349784 -23.545498678091324 0 0 0
1699 0 3 0 -2.497377267254591 -1.4418614375174883 -21.190948810282187 0 0 0
1701 0 3 0 -2.4973772672545893 -4.325584312552468 -21.190948810282187 0 0 0
1703 0 3 0 -8.324590890848633 -8.651168625104933 -25.900048545900454 0 0 0
1704 0 3 0 -9.157049979933495 -7.209307187587445 -23.545498678091324 0 0 0
1705 0 3 0 -6.659672712678906 -8.651168625104933 -23.54549867809132 0 0 0
1706 0 3 0 -6.659672712678906 -5.767445750069955 -23.54549867809132 0 0 0
1707 0 3 0 -7.492131801763769 -4.325584312552467 -21.19094881028219 0 0 0
1708 0 3 0 -4.9947545345091795 -5.767445750069956 -21.19094881028219 0 0 0
1709 0 3 0 -7.492131801763767 -7.209307187587444 -21.190948810282187 0 0 0
1710 0 3 0 -4.9947545345091795 -2.8837228750349784 -21.19094881028219 0 0 0
1711 0 3 0 -9.989509069018357 -8.651168625104933 -21.190948810282187 0 0 0
1712 0 3 0 -9.989509069018357 -5.767445750069955 -21.190948810282187 0 0 0
1739 0 3 0 -1.6649181781697244 -8.651168625104933 -23.54549867809132 0 0 0
1740 0 3 0 -2.49737726725459 -7.209307187587444 -21.19094881028219 0 0 0
1743 0 3 0 -4.994754534509179 -8.651168625104933 -21.190948810282187 0 0 0
1595 0 3 0 1.6649181781697244 0 -25.900048545900454 0 0 0
1654 0 3 0 9.157049979933493 -1.4418614375174892 -25.900048545900454 0 0 0
1663 0 3 0 4.1622954454243155 -1.4418614375174883 -25.900048545900454 0 0 0
1664 0 3 0 6.659672712678904 -2.8837228750349775 -25.900048545900454 0 0 0
1665 0 3 0 4.162295445424317 -4.325584312552468 -25.900048545900454 0 0 0
1666 0 3 0 6.659672712678902 0 -25.900048545900454 0 0 0
1668 0 3 0 8.32459089084863 0 -23.54549867809132 0 0 0
1669 0 3 0 5.827213623594042 -1.4418614375174892 -23.54549867809132 0 0 0
1680 0 3 0 1.6649181781697253 -5.767445750069956 -25.900048545900454 0 0 0
1682 0 3 0 1.6649181781697253 -2.8837228750349784 -25.900048545900454 0 0 0
1683 0 3 0 0.8324590890848631 -1.4418614375174883 -23.54549867809132 0 0 0
1684 0 3 0 3.3298363563394515 -2.8837228750349775 -23.54549867809132 0 0 0
1685 0 3 0 0.8324590890848649 -4.325584312552468 -23.54549867809132 0 0 0
1686 0 3 0 3.3298363563394497 0 -23.545498678091324 0 0 0
1688 0 3 0 4.994754534509178 0 -21.190948810282187 0 0 0
1689 0 3 0 2.49737726725459 -1.4418614375174892 -21.190948810282187 0 0 0
1700 0 3 0 8.881784197001252e-16 -2.8837228750349775 -21.190948810282187 0 0 0
1702 0 3 0 0 0 -21.19094881028219 0 0 0
1717 0 3 0 9.157049979933495 -4.325584312552466 -25.90004854590045 0 0 0
1718 0 3 0 9.157049979933495 -7.209307187587445 -25.900048545900454 0 0 0
1720 0 3 0 4.162295445424316 -7.209307187587444 -25.900048545900454 0 0 0
1721 0 3 0 6.659672712678903 -8.651168625104933 -25.900048545900454 0 0 0
1722 0 3 0 6.659672712678905 -5.767445750069956 -25.90004854590045 0 0 0
1723 0 3 0 5.827213623594043 -4.325584312552466 -23.54549867809132 0 0 0
1724 0 3 0 8.32459089084863 -5.767445750069955 -23.54549867809132 0 0 0
1725 0 3 0 5.827213623594043 -7.209307187587445 -23.54549867809132 0 0 0
1726 0 3 0 8.32459089084863 -2.8837228750349775 -23.54549867809132 0 0 0
1727 0 3 0 7.492131801763769 -1.4418614375174883 -21.19094881028219 0 0 0
1728 0 3 0 9.989509069018355 -2.8837228750349775 -21.190948810282187 0 0 0
1729 0 3 0 7.492131801763767 -4.325584312552467 -21.190948810282187 0 0 0
1730 0 3 0 9.989509069018357 0 -21.190948810282187 0 0 0
1731 0 3 0 1.6649181781697262 -8.651168625104933 -25.90004854590045 0 0 0
1732 0 3 0 0.832459089084864 -7.209307187587444 -23.54549867809132 0 0 0
1733 0 3 0 3.329836356339451 -8.651168625104933 -23.54549867809132 0 0 0
1734 0 3 0 3.3298363563394524 -5.767445750069956 -23.54549867809132 0 0 0
1735 0 3 0 2.49737726725459 -4.325584312552466 -21.190948810282187 0 0 0
1736 0 3 0 4.994754534509177 -5.767445750069955 -21.190948810282187 0 0 0
1737 0 3 0 2.4973772672545906 -7.209307187587445 -21.190948810282187 0 0 0
1738 0 3 0 4.994754534509177 -2.8837228750349775 -21.19094881028219 0 0 0
1741 0 3 0 4.440892098500626e-16 -8.651168625104933 -21.190948810282187 0 0 0
1742 0 3 0 1.7763568394002505e-15 -5.767445750069956 -21.19094881028219 0 0 0
1744 0 3 0 8.324590890848631 -8.651168625104933 -23.54549867809132 0 0 0
1745 0 3 0 7.492131801763769 -7.209307187587443 -21.19094881028219 0 0 0
1746 0 3 0 9.989509069018357 -8.651168625104933 -21.19094881028219 0 0 0
1747 0 3 0 9.989509069018355 -5.767445750069955 -21.19094881028219 0 0 0
1748 0 3 0 4.994754534509179 -8.651168625104933 -21.19094881028219 0 0 0
1458 0 3 0 -3.3298363563394515 8.651168625104933 -25.900048545900454 0 0 0
1459 0 3 0 -5.8272136235940435 7.209307187587445 -25.900048545900454 0 0 0
1462 0 3 0 -8.324590890848633 5.767445750069957 -25.900048545900454 0 0 0
1463 0 3 0 -8.324590890848633 8.651168625104933 -25.900048545900454 0 0 0
1464 0 3 0 -6.659672712678906 8.651168625104933 -23.54549867809132 0 0 0
1465 0 3 0 -9.157049979933495 7.209307187587445 -23.54549867809132 0 0 0
1466 0 3 0 -9.989509069018357 8.651168625104933 -21.190948810282187 0 0 0
1505 0 3 0 -0.8324590890848613 7.209307187587444 -25.900048545900454 0 0 0
1507 0 3 0 -0.8324590890848631 4.325584312552467 -25.900048545900454 0 0 0
1521 0 3 0 -5.827213623594043 4.325584312552467 -25.900048545900454 0 0 0
1522 0 3 0 -3.3298363563394524 2.8837228750349784 -25.900048545900454 0 0 0
1523 0 3 0 -5.827213623594043 1.4418614375174883 -25.900048545900454 0 0 0
1524 0 3 0 -3.3298363563394515 5.767445750069955 -25.900048545900454 0 0 0
1525 0 3 0 -4.1622954454243155 7.209307187587444 -23.54549867809132 0 0 0
1526 0 3 0 -1.6649181781697253 5.767445750069956 -23.54549867809132 0 0 0
1527 0 3 0 -4.162295445424317 4.325584312552467 -23.54549867809132 0 0 0
1528 0 3 0 -1.6649181781697244 8.651168625104933 -23.54549867809132 0 0 0
1530 0 3 0 -2.49737726725459 7.209307187587444 -21.190948810282187 0 0 0
1534 0 3 0 -8.324590890848631 2.8837228750349766 -25.900048545900454 0 0 0
1535 0 3 0 -9.157049979933493 4.325584312552467 -23.54549867809132 0 0 0
1536 0 3 0 -6.659672712678907 2.8837228750349784 -23.54549867809132 0 0 0
1537 0 3 0 -9.157049979933493 1.4418614375174883 -23.54549867809132 0 0 0
1538 0 3 0 -6.659672712678906 5.767445750069955 -23.54549867809132 0 0 0
1539 0 3 0 -7.492131801763767 7.209307187587444 -21.190948810282187 0 0 0
1540 0 3 0 -4.9947545345091795 5.767445750069956 -21.190948810282187 0 0 0
1541 0 3 0 -7.492131801763769 4.325584312552467 -21.19094881028219 0 0 0
1542 0 3 0 -4.994754534509179 8.651168625104933 -21.190948810282187 0 0 0
1543 0 3 0 -9.989509069018359 2.8837228750349784 -21.190948810282187 0 0 0
1544 0 3 0 -9.989509069018357 5.767445750069955 -21.190948810282187 0 0 0
1594 0 3 0 -0.8324590890848622 1.44186143751749 -25.900048545900454 0 0 0
1618 0 3 0 -4.162295445424316 1.44186143751749 -23.54549867809132 0 0 0
1621 0 3 0 -1.6649181781697253 2.8837228750349784 -23.54549867809132 0 0 0
1622 0 3 0 -2.4973772672545893 4.325584312552468 -21.190948810282187 0 0 0
1624 0 3 0 -2.497377267254591 1.4418614375174883 -21.190948810282187 0 0 0
1634 0 3 0 -7.492131801763768 1.44186143751749 -21.190948810282187 0 0 0
1637 0 3 0 -4.9947545345091795 2.8837228750349784 -21.190948810282187 0 0 0
1491 0 3 0 6.659672712678903 8.651168625104933 -25.900048545900454 0 0 0
1492 0 3 0 4.162295445424316 7.209307187587444 -25.900048545900454 0 0 0
1506 0 3 0 1.6649181781697244 5.767445750069956 -25.900048545900454 0 0 0
1508 0 3 0 1.6649181781697262 8.651168625104933 -25.900048545900454 0 0 0
1509 0 3 0 3.3298363563394506 8.651168625104933 -23.54549867809132 0 0 0
1510 0 3 0 0.832459089084864 7.209307187587444 -23.54549867809132 0 0 0
1529 0 3 0 0 8.651168625104933 -21.19094881028219 0 0 0
1559 0 3 0 9.157049979933495 7.209307187587445 -25.900048545900454 0 0 0
1560 0 3 0 9.157049979933495 4.325584312552466 -25.900048545900454 0 0 0
1573 0 3 0 4.162295445424316 4.325584312552468 -25.900048545900454 0 0 0
1574 0 3 0 6.659672712678903 2.8837228750349775 -25.900048545900454 0 0 0
1575 0 3 0 4.162295445424315 1.4418614375174883 -25.900048545900454 0 0 0
1576 0 3 0 6.659672712678905 5.767445750069956 -25.900048545900454 0 0 0
1577 0 3 0 5.827213623594043 7.209307187587445 -23.54549867809132 0 0 0
1578 0 3 0 8.32459089084863 5.767445750069955 -23.54549867809132 0 0 0
1579 0 3 0 5.827213623594043 4.325584312552466 -23.54549867809132 0 0 0
1580 0 3 0 8.324590890848631 8.651168625104933 -23.54549867809132 0 0 0
1581 0 3 0 9.989509069018355 8.651168625104933 -21.190948810282187 0 0 0
1582 0 3 0 7.492131801763769 7.209307187587443 -21.190948810282187 0 0 0
1597 0 3 0 1.6649181781697244 2.8837228750349784 -25.900048545900454 0 0 0
1598 0 3 0 0.8324590890848649 4.325584312552468 -23.54549867809132 0 0 0
1599 0 3 0 3.3298363563394506 2.8837228750349775 -23.54549867809132 0 0 0
1600 0 3 0 0.8324590890848631 1.4418614375174883 -23.54549867809132 0 0 0
1601 0 3 0 3.3298363563394524 5.767445750069956 -23.54549867809132 0 0 0
1602 0 3 0 2.49737726725459 7.209307187587445 -21.190948810282187 0 0 0
1603 0 3 0 4.994754534509177 5.767445750069955 -21.190948810282187 0 0 0
1604 0 3 0 2.49737726725459 4.325584312552466 -21.190948810282187 0 0 0
1605 0 3 0 4.994754534509179 8.651168625104933 -21.190948810282187 0 0 0
1623 0 3 0 8.881784197001252e-16 2.8837228750349775 -21.190948810282187 0 0 0
1625 0 3 0 1.7763568394002505e-15 5.767445750069956 -21.190948810282187 0 0 0
1653 0 3 0 9.157049979933493 1.4418614375174892 -25.900048545900454 0 0 0
1667 0 3 0 5.827213623594042 1.4418614375174892 -23.545498678091324 0 0 0
1670 0 3 0 8.32459089084863 2.8837228750349775 -23.54549867809132 0 0 0
1671 0 3 0 7.492131801763768 4.325584312552467 -21.19094881028219 0 0 0
1672 0 3 0 9.989509069018357 2.8837228750349775 -21.190948810282187 0 0 0
1673 0 3 0 7.49213180176377 1.4418614375174883 -21.19094881028219 0 0 0
1674 0 3 0 9.989509069018357 5.767445750069955 -21.190948810282187 0 0 0
1687 0 3 0 2.49737726725459 1.4418614375174892 -21.190948810282187 0 0 0
1690 0 3 0 4.994754534509178 2.8837228750349775 -21.19094881028219 0 0 0
16 6 2 -0.834 -8.8444661813 -3.0083307987 -13.2546292781 0 0 0
17 6 1 0.417 -8.9034591945 -2.1840622823 -12.7531226861 0 0 0
18 6 1 0.417 -9.7201835057 -3.4070679443 -13.0638963372 0 0 0
89 30 1 0.417 -0.1317830487 -0.0676675589 -14.7342919519 0 0 0
104 35 1 0.417 -4.555409073 -0.3806633957 -12.6342533567 0 0 0
133 45 2 -0.834 -5.1222463391 -0.839376998 -14.3144506445 0 0 0
134 45 1 0.417 -5.7473713858 -0.2164694231 -14.7480068344 0 0 0
135 45 1 0.417 -5.5664974104 -1.6855175112 -14.4448986062 0 0 0
182 61 1 0.417 -0.4593310579 -6.7094478754 -16.7684225665 0 0 0
183 61 1 0.417 -0.3022471507 -7.5103507371 -18.0143147737 0 0 0
187 63 2 -0.834 -4.0838052691 -3.3378472877 -12.0016622419 0 0 0
188 63 1 0.417 -5.0514146397 -3.4980460243 -12.0855978294 0 0 0
189 63 1 0.417 -3.8350637132 -3.539379829 -12.9315161123 0 0 0
202 68 2 -0.834 -3.1535478906 -6.3275457375 -18.6701995264 0 0 0
203 68 1 0.417 -3.4429045963 -6.3680850251 -17.7303592335 0 0 0
204 68 1 0.417 -3.7271651884 -5.5979743875 -18.9800070076 0 0 0
208 70 2 -0.834 -8.9319724686 -5.6614489841 -15.8767823127 0 0 0
209 70 1 0.417 -8.5585914109 -5.1317541339 -16.6168167398 0 0 0
210 70 1 0.417 -9.4265974813 -4.9680094274 -15.4178476446 0 0 0
217 73 2 -0.834 -6.5538952726 -4.3003838066 -12.5149450924 0 0 0
218 73 1 0.417 -7.3522974647 -3.9764449863 -12.9842201527 0 0 0
219 73 1 0.417 -6.3273529907 -5.1163943151 -12.9938463394 0 0 0
220 74 2 -0.834 -3.7148059692 -4.1119291346 -14.5851387577 0 0 0
221 74 1 0.417 -2.7435324386 -4.2022597187 -14.5034556046 0 0 0
222 74 1 0.417 -3.8170441961 -3.7186659181 -15.4824937236 0 0 0
226 76 2 -0.834 -3.9673133848 -3.1210864766 -17.0849696131 0 0 0
227 76 1 0.417 -4.3955204675 -3.4585939544 -17.8977999862 0 0 0
228 76 1 0.417 -3.2178382682 -2.6277044917 -17.4785700801 0 0 0
238 80 2 -0.834 -5.0409262325 -6.8816718895 -12.8505354574 0 0 0
239 80 1 0.417 -5.7939786163 -7.4815257654 -12.6589644075 0 0 0
240 80 1 0.417 -4.2995950461 -7.5174798674 -12.8639460092 0 0 0
289 97 2 -0.834 -8.2354374114 -1.0737826575 -17.1957645416 0 0 0
290 97 1 0.417 -7.6659775361 -0.4603307145 -16.6791686133 0 0 0
291 97 1 0.417 -9.0946588909 -0.9365031277 -16.7666729537 0 0 0
337 113 2 -0.834 -1.1282459223 -4.6174377624 -13.7616331587 0 0 0
338 113 1 0.417 -0.3355271013 -4.0527243612 -13.639330322 0 0 0
339 113 1 0.417 -1.2550711272 -4.9236767891 -12.835158452 0 0 0
343 115 2 -0.834 -0.296217525 -7.7667690197 -12.9552157777 0 0 0
344 115 1 0.417 -0.3550199869 -7.0314104736 -12.3198121244 0 0 0
349 117 2 -0.834 -4.0397187233 -6.5350373264 -16.105909139 0 0 0
350 117 1 0.417 -4.2543444824 -5.869398135 -15.4266607149 0 0 0
351 117 1 0.417 -3.1661268141 -6.836004287 -15.7816205926 0 0 0
361 121 2 -0.834 -8.3292681013 -3.7913582765 -17.7252317788 0 0 0
362 121 1 0.417 -8.1595293616 -2.8703012035 -17.4435263725 0 0 0
363 121 1 0.417 -8.6524262994 -3.6709618099 -18.6218239906 0 0 0
407 136 1 0.417 -3.9006351593 -0.420811994 -15.7404572218 0 0 0
408 136 1 0.417 -2.9596045049 -0.6548898814 -16.923072082 0 0 0
412 138 2 -0.834 -1.9456423809 -1.6218182684 -18.0664697256 0 0 0
413 138 1 0.417 -2.0007809862 -1.3717016459 -19.0162032748 0 0 0
414 138 1 0.417 -0.9763881563 -1.6873940108 -17.9631504569 0 0 0
535 179 2 -0.834 -8.8754311526 -6.871305786 -13.3640081884 0 0 0
536 179 1 0.417 -9.811493391 -7.1005628528 -13.5673386373 0 0 0
537 179 1 0.417 -8.6267225292 -6.5192962609 -14.2450669424 0 0 0
592 198 2 -0.834 -7.1237521902 -8.4197570913 -12.0311566838 0 0 0
593 198 1 0.417 -7.8281920126 -7.9671732113 -12.5397769768 0 0 0
594 198 1 0.417 -7.3756049735 -9.3653554504 -12.1392815818 0 0 0
595 199 2 -0.834 -8.3272347662 -8.4064806864 -16.4757679579 0 0 0
596 199 1 0.417 -7.5410113129 -8.018291126 -16.9149490364 0 0 0
597 199 1 0.417 -8.8133813058 -7.5942178141 -16.2649255946 0 0 0
598 200 2 -0.834 -2.8397572879 -8.4606142667 -12.1547312785 0 0 0
599 200 1 0.417 -1.9736711144 -8.2962369383 -12.5802471421 0 0 0
610 204 2 -0.834 -6.1728345875 -7.2499732241 -17.6852807909 0 0 0
611 204 1 0.417 -5.7130724235 -7.8627457527 -18.2916254729 0 0 0
612 204 1 0.417 -5.4707816336 -7.0578836659 -17.020330166 0 0 0
613 205 2 -0.834 -1.4442598406 -6.8311645147 -15.2965319521 0 0 0
614 205 1 0.417 -1.1034089129 -7.4507749105 -14.6249221111 0 0 0
615 205 1 0.417 -1.3092301789 -5.9836422579 -14.8174574307 0 0 0
3 1 1 0.417 1.3163082597 -0.1630510107 -12.8251118822 0 0 0
37 13 2 -0.834 3.4973986689 -5.4370268204 -12.4716961288 0 0 0
39 13 1 0.417 4.1967416731 -5.0188809142 -13.0088960578 0 0 0
88 30 2 -0.834 0.5565654466 -0.7188168278 -14.480754706 0 0 0
90 30 1 0.417 1.1780096583 -0.6445033978 -15.2247463936 0 0 0
91 31 2 -0.834 0.7974228012 -2.0417787222 -17.8599422444 0 0 0
92 31 1 0.417 1.5135353817 -1.7336452451 -17.2650556349 0 0 0
93 31 1 0.417 0.7422712781 -2.9751568579 -17.6236176727 0 0 0
97 33 2 -0.834 4.1413076782 -0.4658312993 -13.8958227469 0 0 0
98 33 1 0.417 3.4410483724 -0.2277967427 -13.2433795326 0 0 0
99 33 1 0.417 4.7513308191 -0.9651173567 -13.3135070552 0 0 0
118 40 2 -0.834 2.8365939287 -1.2324885276 -16.167499393 0 0 0