LAMMPS data file via write_data, version 29 Sep 2021, timestep = 2350

1748 atoms
3 atom types
948 bonds
1 bond types
474 angles
1 angle types

-10.094 10.094 xlo xhi
-9.99 9.99 ylo yhi
-34.912 18.785 zlo zhi

Masses

1 1.008
2 15.999
3 197

PairIJ Coeffs # lj/charmmfsw/coul/long

1 1 0.046 0.400014 0.046 0.400014
1 2 0.0836457 1.77529 0.0836457 1.77529
1 3 0.493295 1.51451 0.493295 1.51451
2 2 0.1521 3.15057 0.1521 3.15057
2 3 0.897 2.88979 0.897 2.88979
3 3 5.29 2.629 5.29 2.629

Bond Coeffs # harmonic

1 450 0.9572

Angle Coeffs # charmm

1 55 104.52 0 0

Atoms # full

1448 0 3 0 -8.324590890848631 0 -33.01977799823008 0 0 0
1481 0 3 0 -0.8324590890848622 -1.4418614375174883 -33.01977799823008 0 0 0
1493 0 3 0 -5.827213623594041 -1.44186143751749 -33.019777998230076 0 0 0
1494 0 3 0 -3.329836356339454 -2.8837228750349784 -33.01977799823008 0 0 0
1495 0 3 0 -5.827213623594043 -4.325584312552467 -33.01977799823008 0 0 0
1496 0 3 0 -3.3298363563394524 0 -33.019777998230076 0 0 0
1498 0 3 0 -1.664918178169728 0 -30.66522813042105 0 0 0
1499 0 3 0 -4.162295445424315 -1.4418614375174883 -30.66522813042105 0 0 0
1511 0 3 0 -8.324590890848631 -5.767445750069955 -33.01977799823008 0 0 0
1512 0 3 0 -8.324590890848631 -2.8837228750349784 -33.01977799823008 0 0 0
1513 0 3 0 -9.157049979933495 -1.44186143751749 -30.665228130421045 0 0 0
1514 0 3 0 -6.659672712678905 -2.8837228750349784 -30.66522813042105 0 0 0
1515 0 3 0 -9.157049979933497 -4.325584312552467 -30.66522813042105 0 0 0
1516 0 3 0 -6.659672712678903 0 -30.665228130421045 0 0 0
1518 0 3 0 -4.994754534509179 0 -28.310678262611916 0 0 0
1519 0 3 0 -7.492131801763769 -1.4418614375174883 -28.310678262611916 0 0 0
1531 0 3 0 -9.989509069018359 -2.8837228750349784 -28.310678262611916 0 0 0
1532 0 3 0 -9.989509069018357 0 -28.310678262611912 0 0 0
1561 0 3 0 -0.8324590890848622 -4.325584312552467 -33.019777998230076 0 0 0
1563 0 3 0 -0.832459089084864 -7.209307187587445 -33.01977799823008 0 0 0
1583 0 3 0 -5.827213623594041 -7.209307187587443 -33.019777998230076 0 0 0
1584 0 3 0 -3.329836356339454 -8.651168625104933 -33.019777998230076 0 0 0
1585 0 3 0 -3.329836356339454 -5.767445750069955 -33.019777998230076 0 0 0
1586 0 3 0 -4.162295445424315 -4.325584312552467 -30.665228130421042 0 0 0
1587 0 3 0 -1.664918178169728 -5.767445750069957 -30.66522813042105 0 0 0
1588 0 3 0 -4.162295445424316 -7.209307187587445 -30.66522813042105 0 0 0
1589 0 3 0 -1.6649181781697262 -2.8837228750349766 -30.665228130421042 0 0 0
1590 0 3 0 -2.4973772672545884 -1.4418614375174883 -28.310678262611916 0 0 0
1591 0 3 0 -1.7763568394002505e-15 -2.8837228750349784 -28.310678262611916 0 0 0
1592 0 3 0 -2.4973772672545884 -4.325584312552467 -28.310678262611916 0 0 0
1606 0 3 0 -8.324590890848631 -8.651168625104932 -33.019777998230076 0 0 0
1607 0 3 0 -9.157049979933495 -7.209307187587443 -30.665228130421042 0 0 0
1608 0 3 0 -6.659672712678905 -8.651168625104933 -30.66522813042105 0 0 0
1609 0 3 0 -6.659672712678905 -5.767445750069955 -30.66522813042105 0 0 0
1610 0 3 0 -7.492131801763769 -4.325584312552467 -28.310678262611916 0 0 0
1611 0 3 0 -4.994754534509179 -5.767445750069957 -28.310678262611916 0 0 0
1612 0 3 0 -7.492131801763771 -7.209307187587445 -28.310678262611916 0 0 0
1613 0 3 0 -4.994754534509177 -2.8837228750349766 -28.310678262611916 0 0 0
1626 0 3 0 -9.989509069018359 -8.651168625104933 -28.310678262611916 0 0 0
1627 0 3 0 -9.989509069018359 -5.767445750069955 -28.310678262611916 0 0 0
1675 0 3 0 -1.6649181781697289 -8.651168625104933 -30.665228130421045 0 0 0
1676 0 3 0 -2.4973772672545893 -7.209307187587445 -28.310678262611912 0 0 0
1677 0 3 0 -8.881784197001252e-16 -8.651168625104933 -28.310678262611916 0 0 0
1678 0 3 0 -8.881784197001252e-16 -5.767445750069955 -28.310678262611912 0 0 0
1691 0 3 0 -4.9947545345091795 -8.651168625104933 -28.310678262611916 0 0 0
1161 387 1 0.417 -6.7995798033773305 -5.402220113384118 -34.71436005372158 0 0 1
1333 445 2 -0.834 -5.72959580883437 -9.681411953071114 -34.890897871242174 0 0 1
1480 0 3 0 1.6649181781697244 0 -33.01977799823008 0 0 0
1546 0 3 0 9.157049979933495 -1.44186143751749 -33.019777998230076 0 0 0
1547 0 3 0 4.162295445424316 -1.4418614375174883 -33.019777998230076 0 0 0
1548 0 3 0 6.659672712678907 -2.8837228750349784 -33.01977799823008 0 0 0
1549 0 3 0 4.162295445424316 -4.325584312552467 -33.019777998230076 0 0 0
1550 0 3 0 6.659672712678908 0 -33.019777998230076 0 0 0
1552 0 3 0 8.324590890848633 0 -30.66522813042105 0 0 0
1553 0 3 0 5.827213623594043 -1.44186143751749 -30.66522813042105 0 0 0
1562 0 3 0 1.6649181781697244 -5.767445750069957 -33.019777998230076 0 0 0
1564 0 3 0 1.6649181781697262 -2.8837228750349766 -33.019777998230076 0 0 0
1565 0 3 0 0.832459089084864 -1.4418614375174883 -30.66522813042105 0 0 0
1566 0 3 0 3.3298363563394506 -2.8837228750349784 -30.66522813042105 0 0 0
1567 0 3 0 0.832459089084864 -4.325584312552467 -30.66522813042105 0 0 0
1568 0 3 0 3.3298363563394524 0 -30.665228130421042 0 0 0
1570 0 3 0 4.994754534509177 0 -28.310678262611916 0 0 0
1571 0 3 0 2.49737726725459 -1.44186143751749 -28.310678262611916 0 0 0
1593 0 3 0 0 0 -28.310678262611916 0 0 0
1640 0 3 0 9.157049979933493 -4.325584312552467 -33.01977799823008 0 0 0
1641 0 3 0 9.157049979933497 -7.209307187587444 -33.019777998230076 0 0 0
1642 0 3 0 4.1622954454243155 -7.209307187587445 -33.01977799823008 0 0 0
1643 0 3 0 6.6596727126789075 -8.651168625104933 -33.01977799823008 0 0 0
1644 0 3 0 6.6596727126789075 -5.767445750069955 -33.01977799823008 0 0 0
1645 0 3 0 5.827213623594042 -4.325584312552467 -30.665228130421045 0 0 0
1646 0 3 0 8.324590890848633 -5.767445750069956 -30.66522813042105 0 0 0
1647 0 3 0 5.8272136235940435 -7.209307187587444 -30.665228130421045 0 0 0
1648 0 3 0 8.324590890848633 -2.8837228750349784 -30.665228130421045 0 0 0
1649 0 3 0 7.492131801763768 -1.4418614375174883 -28.310678262611912 0 0 0
1650 0 3 0 9.98950906901836 -2.8837228750349775 -28.310678262611916 0 0 0
1651 0 3 0 7.49213180176377 -4.325584312552468 -28.310678262611916 0 0 0
1652 0 3 0 9.989509069018357 0 -28.310678262611916 0 0 0
1655 0 3 0 1.6649181781697235 -8.651168625104933 -33.01977799823008 0 0 0
1656 0 3 0 0.8324590890848631 -7.209307187587445 -30.665228130421045 0 0 0
1657 0 3 0 3.3298363563394515 -8.651168625104933 -30.665228130421045 0 0 0
1658 0 3 0 3.3298363563394515 -5.767445750069955 -30.665228130421045 0 0 0
1659 0 3 0 2.4973772672545893 -4.325584312552467 -28.310678262611916 0 0 0
1660 0 3 0 4.994754534509178 -5.767445750069956 -28.310678262611916 0 0 0
1661 0 3 0 2.497377267254591 -7.209307187587444 -28.310678262611916 0 0 0
1662 0 3 0 4.994754534509178 -2.8837228750349784 -28.310678262611912 0 0 0
1713 0 3 0 8.324590890848635 -8.651168625104933 -30.665228130421045 0 0 0
1714 0 3 0 7.492131801763769 -7.209307187587444 -28.310678262611912 0 0 0
1715 0 3 0 9.989509069018359 -8.651168625104933 -28.310678262611916 0 0 0
1716 0 3 0 9.98950906901836 -5.767445750069956 -28.310678262611912 0 0 0
1719 0 3 0 4.994754534509179 -8.651168625104933 -28.310678262611912 0 0 0
1421 474 1 0.417 4.202666910873077 -9.654778288693905 -33.75063355215382 0 1 1
1158 386 1 0.417 0.6264901721130636 -5.172588853152618 -34.69271218616867 0 0 1
1423 0 3 0 -3.329836356339454 8.651168625104933 -33.019777998230076 0 0 0
1424 0 3 0 -5.827213623594041 7.209307187587443 -33.019777998230076 0 0 0
1425 0 3 0 -8.324590890848631 5.767445750069955 -33.019777998230076 0 0 0
1426 0 3 0 -8.324590890848631 8.651168625104932 -33.01977799823008 0 0 0
1427 0 3 0 -6.659672712678905 8.651168625104933 -30.665228130421045 0 0 0
1428 0 3 0 -9.157049979933495 7.209307187587443 -30.665228130421045 0 0 0
1429 0 3 0 -9.989509069018359 8.651168625104933 -28.310678262611916 0 0 0
1432 0 3 0 -0.832459089084864 7.209307187587445 -33.01977799823008 0 0 0
1434 0 3 0 -0.8324590890848622 4.325584312552467 -33.01977799823008 0 0 0
1438 0 3 0 -5.827213623594043 4.325584312552467 -33.01977799823008 0 0 0
1439 0 3 0 -3.329836356339454 2.8837228750349784 -33.01977799823008 0 0 0
1440 0 3 0 -5.827213623594041 1.44186143751749 -33.01977799823008 0 0 0
1441 0 3 0 -3.329836356339454 5.767445750069955 -33.01977799823008 0 0 0
1442 0 3 0 -4.162295445424316 7.209307187587445 -30.665228130421045 0 0 0
1443 0 3 0 -1.664918178169728 5.767445750069957 -30.665228130421045 0 0 0
1444 0 3 0 -4.162295445424315 4.325584312552467 -30.665228130421045 0 0 0
1445 0 3 0 -1.6649181781697298 8.651168625104933 -30.66522813042105 0 0 0
1446 0 3 0 -1.7763568394002505e-15 8.651168625104933 -28.310678262611916 0 0 0
1447 0 3 0 -2.4973772672545893 7.209307187587445 -28.310678262611916 0 0 0
1449 0 3 0 -8.324590890848631 2.8837228750349784 -33.01977799823008 0 0 0
1450 0 3 0 -9.157049979933497 4.325584312552467 -30.66522813042105 0 0 0
1451 0 3 0 -6.659672712678905 2.8837228750349784 -30.665228130421045 0 0 0
1452 0 3 0 -9.157049979933495 1.44186143751749 -30.665228130421045 0 0 0
1453 0 3 0 -6.659672712678905 5.767445750069955 -30.66522813042105 0 0 0
1454 0 3 0 -7.492131801763771 7.209307187587445 -28.310678262611916 0 0 0
1455 0 3 0 -4.994754534509179 5.767445750069957 -28.310678262611916 0 0 0
1456 0 3 0 -7.492131801763769 4.325584312552467 -28.310678262611916 0 0 0
1457 0 3 0 -4.9947545345091795 8.651168625104933 -28.310678262611916 0 0 0
1460 0 3 0 -9.989509069018359 2.8837228750349784 -28.310678262611916 0 0 0
1461 0 3 0 -9.989509069018359 5.767445750069955 -28.310678262611916 0 0 0
1479 0 3 0 -0.8324590890848622 1.4418614375174883 -33.01977799823008 0 0 0
1497 0 3 0 -4.162295445424315 1.4418614375174883 -30.665228130421045 0 0 0
1500 0 3 0 -1.6649181781697262 2.8837228750349766 -30.665228130421045 0 0 0
1501 0 3 0 -2.4973772672545884 4.325584312552467 -28.310678262611912 0 0 0
1502 0 3 0 -1.7763568394002505e-15 2.8837228750349784 -28.310678262611916 0 0 0
1503 0 3 0 -2.4973772672545884 1.4418614375174883 -28.310678262611916 0 0 0
1504 0 3 0 -1.7763568394002505e-15 5.767445750069955 -28.310678262611916 0 0 0
1517 0 3 0 -7.492131801763769 1.4418614375174883 -28.310678262611916 0 0 0
1520 0 3 0 -4.994754534509177 2.8837228750349766 -28.310678262611916 0 0 0
947 316 1 0.417 -7.2899151884966376 4.111330702625122 -34.74071646744388 0 0 1
1430 0 3 0 6.659672712678907 8.651168625104933 -33.01977799823008 0 0 0
1431 0 3 0 4.162295445424315 7.209307187587445 -33.01977799823008 0 0 0
1433 0 3 0 1.6649181781697244 5.767445750069957 -33.01977799823008 0 0 0
1435 0 3 0 1.6649181781697227 8.651168625104933 -33.01977799823008 0 0 0
1436 0 3 0 3.3298363563394506 8.651168625104933 -30.665228130421045 0 0 0
1437 0 3 0 0.8324590890848622 7.209307187587445 -30.665228130421045 0 0 0
1467 0 3 0 9.157049979933495 7.209307187587444 -33.019777998230076 0 0 0
1468 0 3 0 9.157049979933493 4.325584312552467 -33.01977799823008 0 0 0
1469 0 3 0 4.162295445424316 4.325584312552467 -33.019777998230076 0 0 0
1470 0 3 0 6.659672712678907 2.8837228750349784 -33.01977799823008 0 0 0
1471 0 3 0 4.162295445424316 1.4418614375174883 -33.01977799823008 0 0 0
1472 0 3 0 6.659672712678907 5.767445750069955 -33.01977799823008 0 0 0
1473 0 3 0 5.827213623594043 7.209307187587444 -30.665228130421045 0 0 0
1474 0 3 0 8.324590890848633 5.767445750069956 -30.66522813042105 0 0 0
1475 0 3 0 5.827213623594041 4.325584312552467 -30.66522813042105 0 0 0
1476 0 3 0 8.324590890848635 8.651168625104933 -30.665228130421045 0 0 0
1477 0 3 0 9.98950906901836 8.651168625104933 -28.310678262611916 0 0 0
1478 0 3 0 7.492131801763769 7.209307187587444 -28.310678262611916 0 0 0
1482 0 3 0 1.6649181781697262 2.8837228750349766 -33.019777998230076 0 0 0
1483 0 3 0 0.832459089084864 4.325584312552467 -30.665228130421045 0 0 0
1484 0 3 0 3.3298363563394506 2.8837228750349784 -30.66522813042105 0 0 0
1485 0 3 0 0.832459089084864 1.4418614375174883 -30.66522813042105 0 0 0
1486 0 3 0 3.3298363563394506 5.767445750069955 -30.665228130421045 0 0 0
1487 0 3 0 2.49737726725459 7.209307187587444 -28.310678262611916 0 0 0
1488 0 3 0 4.994754534509177 5.767445750069956 -28.310678262611916 0 0 0
1489 0 3 0 2.4973772672545884 4.325584312552467 -28.310678262611916 0 0 0
1490 0 3 0 4.994754534509179 8.651168625104933 -28.310678262611912 0 0 0
1545 0 3 0 9.157049979933495 1.44186143751749 -33.019777998230076 0 0 0
1551 0 3 0 5.827213623594043 1.44186143751749 -30.665228130421042 0 0 0
1554 0 3 0 8.324590890848633 2.8837228750349784 -30.66522813042105 0 0 0
1555 0 3 0 7.492131801763769 4.325584312552468 -28.310678262611916 0 0 0
1556 0 3 0 9.989509069018359 2.8837228750349775 -28.310678262611916 0 0 0
1557 0 3 0 7.492131801763767 1.4418614375174883 -28.310678262611916 0 0 0
1558 0 3 0 9.98950906901836 5.767445750069956 -28.310678262611916 0 0 0
1569 0 3 0 2.49737726725459 1.44186143751749 -28.310678262611916 0 0 0
1572 0 3 0 4.994754534509177 2.8837228750349784 -28.310678262611916 0 0 0
1098 366 1 0.417 1.6384440017133632 4.237410058481442 -34.74218385036646 0 0 1
1420 474 2 -0.834 3.954862832508588 9.945440512201106 -34.59659460212361 0 0 1
1533 0 3 0 -8.324590890848633 0 -25.956128394802782 0 0 0
1596 0 3 0 -0.8324590890848622 -1.44186143751749 -25.956128394802782 0 0 0
1614 0 3 0 -5.827213623594043 -1.4418614375174883 -25.956128394802782 0 0 0
1615 0 3 0 -3.3298363563394524 -2.8837228750349784 -25.956128394802782 0 0 0
1616 0 3 0 -5.827213623594043 -4.325584312552467 -25.956128394802782 0 0 0
1617 0 3 0 -3.3298363563394506 0 -25.956128394802782 0 0 0
1619 0 3 0 -1.6649181781697262 0 -23.60157852699365 0 0 0
1620 0 3 0 -4.162295445424316 -1.44186143751749 -23.60157852699365 0 0 0
1628 0 3 0 -8.324590890848633 -5.767445750069957 -25.956128394802782 0 0 0
1629 0 3 0 -8.324590890848631 -2.8837228750349766 -25.956128394802782 0 0 0
1630 0 3 0 -9.157049979933493 -1.4418614375174883 -23.60157852699365 0 0 0
1631 0 3 0 -6.659672712678907 -2.8837228750349784 -23.60157852699365 0 0 0
1632 0 3 0 -9.157049979933493 -4.325584312552467 -23.60157852699365 0 0 0
1633 0 3 0 -6.659672712678905 0 -23.60157852699365 0 0 0
1635 0 3 0 -4.99475453450918 0 -21.247028659184515 0 0 0
1636 0 3 0 -7.492131801763768 -1.44186143751749 -21.247028659184515 0 0 0
1638 0 3 0 -9.989509069018359 -2.8837228750349784 -21.247028659184515 0 0 0
1639 0 3 0 -9.989509069018357 0 -21.247028659184515 0 0 0
1679 0 3 0 -0.8324590890848631 -4.325584312552467 -25.956128394802782 0 0 0
1681 0 3 0 -0.8324590890848613 -7.209307187587444 -25.956128394802782 0 0 0
1692 0 3 0 -5.8272136235940435 -7.209307187587445 -25.956128394802782 0 0 0
1693 0 3 0 -3.3298363563394515 -8.651168625104933 -25.956128394802782 0 0 0
1694 0 3 0 -3.3298363563394515 -5.767445750069955 -25.956128394802782 0 0 0
1695 0 3 0 -4.162295445424317 -4.325584312552467 -23.601578526993652 0 0 0
1696 0 3 0 -1.6649181781697253 -5.767445750069956 -23.60157852699365 0 0 0
1697 0 3 0 -4.1622954454243155 -7.209307187587444 -23.60157852699365 0 0 0
1698 0 3 0 -1.6649181781697253 -2.8837228750349784 -23.601578526993652 0 0 0
1699 0 3 0 -2.497377267254591 -1.4418614375174883 -21.247028659184515 0 0 0
1701 0 3 0 -2.4973772672545893 -4.325584312552468 -21.247028659184515 0 0 0
1703 0 3 0 -8.324590890848633 -8.651168625104933 -25.956128394802782 0 0 0
1704 0 3 0 -9.157049979933495 -7.209307187587445 -23.601578526993652 0 0 0
1705 0 3 0 -6.659672712678906 -8.651168625104933 -23.60157852699365 0 0 0
1706 0 3 0 -6.659672712678906 -5.767445750069955 -23.60157852699365 0 0 0
1707 0 3 0 -7.492131801763769 -4.325584312552467 -21.24702865918452 0 0 0
1708 0 3 0 -4.9947545345091795 -5.767445750069956 -21.24702865918452 0 0 0
1709 0 3 0 -7.492131801763767 -7.209307187587444 -21.247028659184515 0 0 0
1710 0 3 0 -4.9947545345091795 -2.8837228750349784 -21.24702865918452 0 0 0
1711 0 3 0 -9.989509069018357 -8.651168625104933 -21.247028659184515 0 0 0
1712 0 3 0 -9.989509069018357 -5.767445750069955 -21.247028659184515 0 0 0
1739 0 3 0 -1.6649181781697244 -8.651168625104933 -23.60157852699365 0 0 0
1740 0 3 0 -2.49737726725459 -7.209307187587444 -21.24702865918452 0 0 0
1743 0 3 0 -4.994754534509179 -8.651168625104933 -21.247028659184515 0 0 0
1595 0 3 0 1.6649181781697244 0 -25.956128394802782 0 0 0
1654 0 3 0 9.157049979933493 -1.4418614375174892 -25.956128394802782 0 0 0
1663 0 3 0 4.1622954454243155 -1.4418614375174883 -25.956128394802782 0 0 0
1664 0 3 0 6.659672712678904 -2.8837228750349775 -25.956128394802782 0 0 0
1665 0 3 0 4.162295445424317 -4.325584312552468 -25.956128394802782 0 0 0
1666 0 3 0 6.659672712678902 0 -25.956128394802782 0 0 0
1668 0 3 0 8.32459089084863 0 -23.60157852699365 0 0 0
1669 0 3 0 5.827213623594042 -1.4418614375174892 -23.60157852699365 0 0 0
1680 0 3 0 1.6649181781697253 -5.767445750069956 -25.956128394802782 0 0 0
1682 0 3 0 1.6649181781697253 -2.8837228750349784 -25.956128394802782 0 0 0
1683 0 3 0 0.8324590890848631 -1.4418614375174883 -23.60157852699365 0 0 0
1684 0 3 0 3.3298363563394515 -2.8837228750349775 -23.60157852699365 0 0 0
1685 0 3 0 0.8324590890848649 -4.325584312552468 -23.60157852699365 0 0 0
1686 0 3 0 3.3298363563394497 0 -23.601578526993652 0 0 0
1688 0 3 0 4.994754534509178 0 -21.247028659184515 0 0 0
1689 0 3 0 2.49737726725459 -1.4418614375174892 -21.247028659184515 0 0 0
1700 0 3 0 8.881784197001252e-16 -2.8837228750349775 -21.247028659184515 0 0 0
1702 0 3 0 0 0 -21.24702865918452 0 0 0
1717 0 3 0 9.157049979933495 -4.325584312552466 -25.95612839480278 0 0 0
1718 0 3 0 9.157049979933495 -7.209307187587445 -25.956128394802782 0 0 0
1720 0 3 0 4.162295445424316 -7.209307187587444 -25.956128394802782 0 0 0
1721 0 3 0 6.659672712678903 -8.651168625104933 -25.956128394802782 0 0 0
1722 0 3 0 6.659672712678905 -5.767445750069956 -25.95612839480278 0 0 0
1723 0 3 0 5.827213623594043 -4.325584312552466 -23.60157852699365 0 0 0
1724 0 3 0 8.32459089084863 -5.767445750069955 -23.60157852699365 0 0 0
1725 0 3 0 5.827213623594043 -7.209307187587445 -23.60157852699365 0 0 0
1726 0 3 0 8.32459089084863 -2.8837228750349775 -23.60157852699365 0 0 0
1727 0 3 0 7.492131801763769 -1.4418614375174883 -21.24702865918452 0 0 0
1728 0 3 0 9.989509069018355 -2.8837228750349775 -21.247028659184515 0 0 0
1729 0 3 0 7.492131801763767 -4.325584312552467 -21.247028659184515 0 0 0
1730 0 3 0 9.989509069018357 0 -21.247028659184515 0 0 0
1731 0 3 0 1.6649181781697262 -8.651168625104933 -25.95612839480278 0 0 0
1732 0 3 0 0.832459089084864 -7.209307187587444 -23.60157852699365 0 0 0
1733 0 3 0 3.329836356339451 -8.651168625104933 -23.60157852699365 0 0 0
1734 0 3 0 3.3298363563394524 -5.767445750069956 -23.60157852699365 0 0 0
1735 0 3 0 2.49737726725459 -4.325584312552466 -21.247028659184515 0 0 0
1736 0 3 0 4.994754534509177 -5.767445750069955 -21.247028659184515 0 0 0
1737 0 3 0 2.4973772672545906 -7.209307187587445 -21.247028659184515 0 0 0
1738 0 3 0 4.994754534509177 -2.8837228750349775 -21.24702865918452 0 0 0
1741 0 3 0 4.440892098500626e-16 -8.651168625104933 -21.247028659184515 0 0 0
1742 0 3 0 1.7763568394002505e-15 -5.767445750069956 -21.24702865918452 0 0 0
1744 0 3 0 8.324590890848631 -8.651168625104933 -23.60157852699365 0 0 0
1745 0 3 0 7.492131801763769 -7.209307187587443 -21.24702865918452 0 0 0
1746 0 3 0 9.989509069018357 -8.651168625104933 -21.24702865918452 0 0 0
1747 0 3 0 9.989509069018355 -5.767445750069955 -21.24702865918452 0 0 0
1748 0 3 0 4.994754534509179 -8.651168625104933 -21.24702865918452 0 0 0
1458 0 3 0 -3.3298363563394515 8.651168625104933 -25.956128394802782 0 0 0
1459 0 3 0 -5.8272136235940435 7.209307187587445 -25.956128394802782 0 0 0
1462 0 3 0 -8.324590890848633 5.767445750069957 -25.956128394802782 0 0 0
1463 0 3 0 -8.324590890848633 8.651168625104933 -25.956128394802782 0 0 0
1464 0 3 0 -6.659672712678906 8.651168625104933 -23.60157852699365 0 0 0
1465 0 3 0 -9.157049979933495 7.209307187587445 -23.60157852699365 0 0 0
1466 0 3 0 -9.989509069018357 8.651168625104933 -21.247028659184515 0 0 0
1505 0 3 0 -0.8324590890848613 7.209307187587444 -25.956128394802782 0 0 0
1507 0 3 0 -0.8324590890848631 4.325584312552467 -25.956128394802782 0 0 0
1521 0 3 0 -5.827213623594043 4.325584312552467 -25.956128394802782 0 0 0
1522 0 3 0 -3.3298363563394524 2.8837228750349784 -25.956128394802782 0 0 0
1523 0 3 0 -5.827213623594043 1.4418614375174883 -25.956128394802782 0 0 0
1524 0 3 0 -3.3298363563394515 5.767445750069955 -25.956128394802782 0 0 0
1525 0 3 0 -4.1622954454243155 7.209307187587444 -23.60157852699365 0 0 0
1526 0 3 0 -1.6649181781697253 5.767445750069956 -23.60157852699365 0 0 0
1527 0 3 0 -4.162295445424317 4.325584312552467 -23.60157852699365 0 0 0
1528 0 3 0 -1.6649181781697244 8.651168625104933 -23.60157852699365 0 0 0
1530 0 3 0 -2.49737726725459 7.209307187587444 -21.247028659184515 0 0 0
1534 0 3 0 -8.324590890848631 2.8837228750349766 -25.956128394802782 0 0 0
1535 0 3 0 -9.157049979933493 4.325584312552467 -23.60157852699365 0 0 0
1536 0 3 0 -6.659672712678907 2.8837228750349784 -23.60157852699365 0 0 0
1537 0 3 0 -9.157049979933493 1.4418614375174883 -23.60157852699365 0 0 0
1538 0 3 0 -6.659672712678906 5.767445750069955 -23.60157852699365 0 0 0
1539 0 3 0 -7.492131801763767 7.209307187587444 -21.247028659184515 0 0 0
1540 0 3 0 -4.9947545345091795 5.767445750069956 -21.247028659184515 0 0 0
1541 0 3 0 -7.492131801763769 4.325584312552467 -21.24702865918452 0 0 0
1542 0 3 0 -4.994754534509179 8.651168625104933 -21.247028659184515 0 0 0
1543 0 3 0 -9.989509069018359 2.8837228750349784 -21.247028659184515 0 0 0
1544 0 3 0 -9.989509069018357 5.767445750069955 -21.247028659184515 0 0 0
1594 0 3 0 -0.8324590890848622 1.44186143751749 -25.956128394802782 0 0 0
1618 0 3 0 -4.162295445424316 1.44186143751749 -23.60157852699365 0 0 0
1621 0 3 0 -1.6649181781697253 2.8837228750349784 -23.60157852699365 0 0 0
1622 0 3 0 -2.4973772672545893 4.325584312552468 -21.247028659184515 0 0 0
1624 0 3 0 -2.497377267254591 1.4418614375174883 -21.247028659184515 0 0 0
1634 0 3 0 -7.492131801763768 1.44186143751749 -21.247028659184515 0 0 0
1637 0 3 0 -4.9947545345091795 2.8837228750349784 -21.247028659184515 0 0 0
628 210 2 -0.834 -7.53208783098811 9.911060845557087 -19.734623115257076 0 0 0
630 210 1 0.417 -7.449930468411681 9.192584941284947 -20.368638206145576 0 0 0
1491 0 3 0 6.659672712678903 8.651168625104933 -25.956128394802782 0 0 0
1492 0 3 0 4.162295445424316 7.209307187587444 -25.956128394802782 0 0 0
1506 0 3 0 1.6649181781697244 5.767445750069956 -25.956128394802782 0 0 0
1508 0 3 0 1.6649181781697262 8.651168625104933 -25.956128394802782 0 0 0
1509 0 3 0 3.3298363563394506 8.651168625104933 -23.60157852699365 0 0 0
1510 0 3 0 0.832459089084864 7.209307187587444 -23.60157852699365 0 0 0
1529 0 3 0 0 8.651168625104933 -21.24702865918452 0 0 0
1559 0 3 0 9.157049979933495 7.209307187587445 -25.956128394802782 0 0 0
1560 0 3 0 9.157049979933495 4.325584312552466 -25.956128394802782 0 0 0
1573 0 3 0 4.162295445424316 4.325584312552468 -25.956128394802782 0 0 0
1574 0 3 0 6.659672712678903 2.8837228750349775 -25.956128394802782 0 0 0
1575 0 3 0 4.162295445424315 1.4418614375174883 -25.956128394802782 0 0 0
1576 0 3 0 6.659672712678905 5.767445750069956 -25.956128394802782 0 0 0
1577 0 3 0 5.827213623594043 7.209307187587445 -23.60157852699365 0 0 0
1578 0 3 0 8.32459089084863 5.767445750069955 -23.60157852699365 0 0 0
1579 0 3 0 5.827213623594043 4.325584312552466 -23.60157852699365 0 0 0
1580 0 3 0 8.324590890848631 8.651168625104933 -23.60157852699365 0 0 0
1581 0 3 0 9.989509069018355 8.651168625104933 -21.247028659184515 0 0 0
1582 0 3 0 7.492131801763769 7.209307187587443 -21.247028659184515 0 0 0
1597 0 3 0 1.6649181781697244 2.8837228750349784 -25.956128394802782 0 0 0
1598 0 3 0 0.8324590890848649 4.325584312552468 -23.60157852699365 0 0 0
1599 0 3 0 3.3298363563394506 2.8837228750349775 -23.60157852699365 0 0 0
1600 0 3 0 0.8324590890848631 1.4418614375174883 -23.60157852699365 0 0 0
1601 0 3 0 3.3298363563394524 5.767445750069956 -23.60157852699365 0 0 0
1602 0 3 0 2.49737726725459 7.209307187587445 -21.247028659184515 0 0 0
1603 0 3 0 4.994754534509177 5.767445750069955 -21.247028659184515 0 0 0
1604 0 3 0 2.49737726725459 4.325584312552466 -21.247028659184515 0 0 0
1605 0 3 0 4.994754534509179 8.651168625104933 -21.247028659184515 0 0 0
1623 0 3 0 8.881784197001252e-16 2.8837228750349775 -21.247028659184515 0 0 0
1625 0 3 0 1.7763568394002505e-15 5.767445750069956 -21.247028659184515 0 0 0
1653 0 3 0 9.157049979933493 1.4418614375174892 -25.956128394802782 0 0 0
1667 0 3 0 5.827213623594042 1.4418614375174892 -23.601578526993652 0 0 0
1670 0 3 0 8.32459089084863 2.8837228750349775 -23.60157852699365 0 0 0
1671 0 3 0 7.492131801763768 4.325584312552467 -21.24702865918452 0 0 0
1672 0 3 0 9.989509069018357 2.8837228750349775 -21.247028659184515 0 0 0
1673 0 3 0 7.49213180176377 1.4418614375174883 -21.24702865918452 0 0 0
1674 0 3 0 9.989509069018357 5.767445750069955 -21.247028659184515 0 0 0
1687 0 3 0 2.49737726725459 1.4418614375174892 -21.247028659184515 0 0 0
1690 0 3 0 4.994754534509178 2.8837228750349775 -21.24702865918452 0 0 0
16 6 2 -0.834 -7.903687954190573 -3.251957500582525 -15.396725594449226 0 0 0
17 6 1 0.417 -7.6521163281304485 -2.9440562084151365 -16.289746364990833 0 0 0
18 6 1 0.417 -8.863857555064055 -3.0136013922162634 -15.398594513974329 0 0 0
104 35 1 0.417 -6.392619167892691 -1.8458326482224046 -12.801399810116697 0 0 0
133 45 2 -0.834 -7.37522271736826 -2.7171913127750997 -18.204767321455606 0 0 0
134 45 1 0.417 -7.606474498238096 -1.7932622367458682 -18.435486310775467 0 0 0
135 45 1 0.417 -6.412835969164856 -2.73601894520329 -18.377061060256388 0 0 0
182 61 1 0.417 -0.5884741917580663 -5.77355834091492 -17.46675047536123 0 0 0
183 61 1 0.417 -0.7516204686498753 -5.763748654095428 -18.958227586939223 0 0 0
189 63 1 0.417 -4.14342768830745 -3.5747608829384157 -12.037909930874768 0 0 0
202 68 2 -0.834 -4.620268655643558 -5.708254648869803 -18.249665058653346 0 0 0
203 68 1 0.417 -4.230563494726419 -6.37349172089273 -17.653640464842987 0 0 0
204 68 1 0.417 -5.342259625256594 -6.2495448708406665 -18.618125970658724 0 0 0
208 70 2 -0.834 -8.633716677833776 -5.7125869417935515 -16.37501655096458 0 0 0
209 70 1 0.417 -9.14995952229776 -5.197489246381319 -17.030786091312414 0 0 0
210 70 1 0.417 -8.166813488208728 -4.975684401456955 -15.936057755073898 0 0 0
217 73 2 -0.834 -7.124621250344502 -3.6820087702834363 -12.740738548572972 0 0 0
218 73 1 0.417 -7.383676723605525 -3.5807411847231934 -13.687949687855346 0 0 0
219 73 1 0.417 -7.523957620788289 -4.544926376649246 -12.52520043296637 0 0 0
220 74 2 -0.834 -3.603085724419625 -2.791861815628901 -13.576861046678095 0 0 0
221 74 1 0.417 -2.856511038058558 -3.4102401602908006 -13.736548239995349 0 0 0
222 74 1 0.417 -3.551098934075489 -2.241667734350883 -14.388967725887351 0 0 0
226 76 2 -0.834 -4.60027960722704 -2.9983408761156394 -18.204856006056907 0 0 0
227 76 1 0.417 -4.5861049887433865 -3.9642714495401012 -18.40572745915069 0 0 0
228 76 1 0.417 -4.310479487737641 -3.014479638741081 -17.28518443501147 0 0 0
238 80 2 -0.834 -5.104375201046343 -7.9755366811895465 -12.93052213803617 0 0 0
239 80 1 0.417 -6.0282936181169475 -8.305588080206007 -12.905781373603194 0 0 0
240 80 1 0.417 -4.769818964492886 -8.388112382263357 -13.736409555340702 0 0 0
290 97 1 0.417 -9.693095588582315 -0.9918833600782078 -18.646862891740188 0 0 0
337 113 2 -0.834 -1.4901820558887975 -4.552094573510446 -13.817108829466218 0 0 0
338 113 1 0.417 -0.6255717144134223 -4.086612623587204 -13.839301234780585 0 0 0
339 113 1 0.417 -1.358342219219122 -5.086462519607865 -13.00916850715011 0 0 0
349 117 2 -0.834 -3.6577969697437247 -7.829235136880785 -16.6975435491115 0 0 0
350 117 1 0.417 -3.502792411046011 -8.4970876837732 -16.008036691339854 0 0 0
351 117 1 0.417 -2.8929366018135236 -7.23929055804362 -16.537610426214346 0 0 0
361 121 2 -0.834 -9.68653747371635 -4.215472045439891 -18.4255995529971 0 0 0
362 121 1 0.417 10.057341904496534 -3.33370571655452 -18.4429190155508 -1 0 0
363 121 1 0.417 -8.77178068853871 -3.883753241684647 -18.54394407135805 0 0 0
407 136 1 0.417 -3.893166568107018 -1.3384867964791076 -18.66260001263107 0 0 0
408 136 1 0.417 -2.515734984628423 -0.7161826070426233 -18.57594589175279 0 0 0
412 138 2 -0.834 -0.8244101439749205 -1.1168360665344124 -18.574221312321786 0 0 0
413 138 1 0.417 -0.17044139370487016 -0.3913649341765023 -18.617483776258197 0 0 0
414 138 1 0.417 -0.22449810850763416 -1.8836914922169659 -18.664132666097547 0 0 0
535 179 2 -0.834 -9.40813274860823 -7.283683959252035 -14.246491098595223 0 0 0
537 179 1 0.417 -8.993932209686964 -6.734193792242479 -14.94489280069192 0 0 0
592 198 2 -0.834 -7.702626575326869 -8.878461311556926 -12.765864735727112 0 0 0
593 198 1 0.417 -8.309808282039397 -8.34231062831908 -13.322368231434176 0 0 0
594 198 1 0.417 -8.18748480553918 -9.732777298659455 -12.754621429367807 0 0 0
595 199 2 -0.834 -8.911719433159 -7.56079220684203 -18.387131417436258 0 0 0
596 199 1 0.417 -7.982728972916702 -7.67119803839828 -18.678348961060408 0 0 0
597 199 1 0.417 -8.75012909359227 -7.019677260043211 -17.583802463983396 0 0 0
598 200 2 -0.834 -2.6503865802826203 -9.237776970248625 -14.365574487702801 0 0 0
599 200 1 0.417 -1.750211003245324 -8.965627943170581 -14.63462363914209 0 0 0
610 204 2 -0.834 -6.178737161133805 -7.998254424455524 -18.53889737937152 0 0 0
611 204 1 0.417 -6.470779126477335 -8.809404889969757 -19.01100538524228 0 0 0
612 204 1 0.417 -5.460233883290923 -8.330310441226207 -17.97886771476393 0 0 0
613 205 2 -0.834 -1.5152798218953505 -6.218613570827043 -16.032365407648772 0 0 0