1748
Atoms. Timestep: 40000
H -3.52408 7.21949 -18.4308
O -3.7141 8.10452 -18.742
O -2.56893 7.1591 -18.4476
H -4.18569 3.47736 -12.7108
O -3.81131 4.34125 -12.5383
O -3.76231 3.18946 -13.5197
H 2.62402 7.1054 -5.78763
O 2.87871 6.18915 -5.89649
O 2.37873 7.39243 -6.66727
H 0.405209 1.72937 -18.4429
O -0.18006 1.83097 -17.6923
O 0.82205 0.878214 -18.3087
H 3.31495 -6.56008 -12.0169
O 3.01 -7.20096 -12.6592
O 3.03999 -6.91711 -11.1724
H 9.53513 -8.72878 -15.9255
O 9.2454 -9.44798 -16.4868
O 8.72486 -8.34126 -15.5945
H 8.30541 1.77055 -9.9539
O 7.75565 1.87136 -10.731
O 9.13885 2.17459 -10.1955
H 6.19608 -0.585032 0.551487
O 6.64699 0.0765204 0.0267973
O 5.35231 -0.187146 0.765883
H -7.33925 -4.03572 -13.4442
O -7.56462 -3.28737 -12.8915
O -6.88391 -4.63916 -12.857
H -4.0971 -0.231987 -9.18307
O -3.5223 -0.982633 -9.33263
O -3.62664 0.509991 -9.56305
H 1.82457 -8.47615 -18.3675
O 1.98526 -9.2848 -18.8539
O 2.04973 -8.69162 -17.4624
H -5.93746 -0.685541 -16.276
O -5.83887 -0.659461 -15.3242
O -5.93081 0.233575 -16.5432
H 5.8739 -4.3272 -18.6144
O 6.0941 -4.62874 -19.4959
O 5.57947 -5.11524 -18.1577
H 5.29307 9.83703 -1.4152
O 4.66998 -9.97567 -0.708049
O 5.46227 8.89607 -1.36834
H 2.90228 4.54119 -10.7995
O 3.20889 4.66165 -9.90067
O 2.11353 5.08032 -10.8582
H -4.215 -9.3228 4.42598
O -3.69192 9.8589 4.499
O -4.39023 -9.23556 3.48895
H -1.327 -3.10057 1.7697
O -1.12793 -3.96611 2.12673
O -0.744112 -2.50623 2.2422
H 7.88477 9.63926 -3.79102
O 7.54591 9.67403 -4.68561
O 8.02293 -9.4245 -3.55093
H -9.15964 -5.9878 -5.86269
O -8.85501 -6.26374 -4.99818
O -9.2975 -5.04431 -5.77867
H -5.80123 3.65069 -18.755
O -5.74915 2.70442 -18.8895
O -5.05054 4.00275 -19.2333
H -3.42508 1.20311 -6.20275
O -3.88931 1.91064 -5.75539
O -4.08176 0.81179 -6.77886
H -9.03102 -2.18962 2.33027
O -8.26595 -2.14589 2.90388
O -9.22818 -3.12395 2.26399
H -7.81237 7.00044 -10.1687
O -7.44859 6.98196 -9.28346
O -8.75763 6.91966 -10.0414
H -1.43163 7.50747 -6.27304
O -1.2267 8.12122 -5.56764
O -1.3501 8.02593 -7.07358
H -4.22857 -5.06278 -2.86526
O -4.95635 -4.5759 -3.25196
O -3.96581 -4.54011 -2.10759
H 5.74968 0.895438 -18.7779
O 5.63535 0.0630241 -18.3194
O 6.68224 1.09218 -18.6892
H 7.85609 1.6324 -13.0899
O 6.93714 1.5042 -12.8546
O 7.83558 2.28205 -13.7926
H 6.14325 3.62271 -18.1743
O 6.1511 3.5099 -17.2238
O 5.72953 2.82627 -18.5071
H -8.42522 8.64887 -18.2239
O -8.69655 8.35107 -17.3555
O -7.67225 8.09944 -18.4416
H 4.10603 -9.61682 -8.30317
O 5.01953 -9.44748 -8.07278
O 3.60432 -9.27158 -7.56467
H 2.54199 0.998458 -16.081
O 2.73726 0.755548 -16.9861
O 3.31594 0.727203 -15.5873
H 1.39403 9.86546 -1.84568
O 1.81226 9.98601 -2.69824
O 1.87827 9.1461 -1.44036
H 2.50744 -6.56096 -4.74807
O 1.70981 -7.08593 -4.68146
O 2.5725 -6.3401 -5.67722
H -0.00417022 -7.62327 7.24558
O 0.403534 -8.45471 7.48791
O 0.617785 -6.95688 7.53769
H -9.53898 -0.647913 -10.0208
O 9.78172 -0.982717 -9.79296
O -8.98699 -0.884426 -9.2754
H 9.37946 -8.72525 -9.13638
O 9.96768 -8.01051 -8.89271
O 9.04916 -8.48016 -10.0008
H -2.32809 9.6966 -15.8054
O -1.93953 9.60535 -16.6755
O -1.7901 9.13968 -15.2427
H 0.0400056 -1.83469 -12.0474
O 0.36472 -2.28614 -12.8265
O 0.00610933 -2.51348 -11.3733
H 1.99297 6.53739 -3.01691
O 2.80771 6.03562 -2.99113
O 2.01202 6.98261 -3.8641
H 6.24522 6.18882 -18.9157
O 6.23082 5.2364 -18.8213
O 7.16101 6.42997 -18.7764
H -8.26186 -7.70011 -4.05
O -8.15374 -8.65118 -4.05231
O -8.33985 -7.46969 -3.12418
H -2.02756 -6.63654 -6.31686
O -1.54302 -6.70189 -5.4939
O -2.72115 -6.0018 -6.1372
H -5.59782 2.75579 -0.703369
O -4.87051 3.27611 -1.04473
O -5.89754 2.24151 -1.45302
H 7.1745 -1.63155 -12.6857
O 7.61415 -2.41046 -12.3448
O 7.87206 -1.12497 -13.1017
H -5.79637 5.52072 -15.5335
O -6.37947 5.71583 -16.2671
O -5.06931 5.03797 -15.9267
H 6.83652 5.65927 -16.1689
O 6.16985 6.09462 -15.6376
O 7.23615 6.36462 -16.6779
H 0.677178 4.71989 -8.27153
O 0.913784 5.14336 -9.09676
O 0.0678153 5.32939 -7.85507
H 5.42651 -4.73369 -0.630206
O 5.26119 -4.65567 -1.56984
O 4.63259 -5.13738 -0.27953
H -9.51408 5.79348 -16.3702
O -9.55065 4.86455 -16.1422
O -8.92064 6.17603 -15.7238
H -9.20191 2.86115 -7.07756
O -10.0014 2.343 -6.98465
O -9.45889 3.74691 -6.82138
H -0.293043 7.81791 -14.6788
O -0.83826 7.07848 -14.4101
O 0.604842 7.51813 -14.5368
H -2.88319 2.42061 -18.3722
O -2.45519 1.6125 -18.6551
O -2.3488 3.11974 -18.7489
H -3.73543 2.20472 -15.5603
O -4.02559 2.26859 -16.4703
O -2.78387 2.29848 -15.6048
H -6.39835 6.22461 -4.82946
O -5.63524 6.68165 -4.47585
O -7.03591 6.2342 -4.11551
H -7.92349 4.60028 -11.8971
O -8.21866 5.48826 -11.6956
O -7.99252 4.13008 -11.0662
H 2.26653 1.60947 -9.42965
O 1.34134 1.65558 -9.18856
O 2.26525 1.25925 -10.3205
H 9.67307 -6.81694 0.152663
O -9.795 -7.30667 0.550299
O 9.20028 -7.46595 -0.368415
H 0.609426 3.9954 -14.8544
O 1.34202 4.07586 -14.2435
O 0.96119 4.29664 -15.6921
H 7.22786 -0.557464 -15.7448
O 6.92439 -0.8344 -16.6094
O 8.16124 -0.381328 -15.8632
H -0.189567 2.50464 -11.7612
O 0.0916093 2.75203 -12.6421
O 0.353515 3.03503 -11.178
H -2.82612 -0.376158 -18.623
O -2.65596 -0.895241 -19.4091
O -2.78986 -1.00849 -17.9053
H -5.77275 0.282023 4.80822
O -5.34898 0.988632 4.32099
O -5.73115 -0.472826 4.22107
H -8.86425 -3.12369 -5.85634
O -9.24472 -2.59851 -5.15227
O -9.21978 -2.74246 -6.65919
H -6.94989 2.62444 -13.7274
O -7.2199 3.34247 -13.1549
O -5.99476 2.61427 -13.6655
H 2.4622 0.380155 -11.7012
O 2.83668 -0.198085 -12.3658
O 1.51573 0.272347 -11.795
H 7.74035 -6.13717 -15.0375
O 7.62038 -5.34644 -14.5115
O 8.4264 -5.9069 -15.664
H 5.37885 -3.59715 -3.01909
O 4.46977 -3.50653 -3.30477
O 5.89677 -3.37898 -3.79399
H -3.6056 -7.69492 -9.5859
O -3.52862 -6.96252 -8.97439
O -4.54816 -7.80488 -9.71122
H 3.00814 -6.12834 0.639519
O 2.12455 -6.27211 0.30062
O 2.89972 -5.46076 1.31692
H -3.46167 -4.12257 -18.1258
O -3.65819 -3.7787 -17.2543
O -2.58121 -3.80003 -18.3181
H 5.86988 -7.7702 -3.07699
O 6.16987 -8.19722 -2.27452
O 5.2578 -8.3945 -3.46669
H 8.70773 -4.84238 -18.9055
O 9.53098 -4.35497 -18.8749
O 8.15693 -4.42487 -18.2432
H -2.89627 2.71951 4.78767
O -2.86856 1.8424 5.16997
O -2.17435 3.18722 5.20759
H -8.3167 -4.34965 -10.0469
O -8.8839 -3.97851 -10.7228
O -7.78076 -4.99331 -10.5103
H 7.45093 9.36604 -16.4684
O 7.0593 9.12266 -15.6295
O 7.92745 8.58392 -16.7467
H -8.74776 -6.99736 -18.6222
O -8.84182 -6.24488 -18.0381
O -9.63174 -7.15618 -18.9533
H 4.13447 5.92104 -12.7108
O 5.0008 5.53424 -12.8376
O 3.80155 5.50794 -11.914
H 3.71695 -5.78825 6.71776
O 3.34125 -4.9569 7.0075
O 3.21355 -6.45492 7.1851
H -3.15499 -4.44311 -12.5639
O -3.93165 -4.47413 -13.1225
O -2.42199 -4.57941 -13.1642
H 8.41049 -8.16751 -5.91049
O 9.10853 -7.51673 -5.83658
O 7.65646 -7.67491 -6.23456
H -5.05296 9.86266 -15.8418
O -4.17141 -9.96466 -15.5015
O -4.914 9.41111 -16.6743
H 3.61192 5.70844 -18.6132
O 3.29343 4.82452 -18.7962
O 4.51298 5.71052 -18.9362
H -7.00425 -5.70979 3.11895
O -7.60931 -5.08489 3.51853
O -6.18431 -5.58983 3.59809
H -2.79024 -0.926574 -14.0279
O -3.24555 -0.950028 -13.1862
O -2.6886 0.00565357 -14.2198
H 9.8115 4.91557 -12.9967
O -9.6128 4.92973 -12.4198
O 9.08067 4.68833 -12.4218
H 2.97204 -2.79569 -18.2998
O 2.94646 -3.32859 -17.505
O 3.8181 -2.9996 -18.6984
H -6.51293 -8.19616 -9.73159
O -6.7999 -8.93502 -10.2683
O -7.1216 -8.18536 -8.99288
H 9.13165 4.28664 -18.5503
O 8.82742 5.16611 -18.3262
O 10.0253 4.41555 -18.8681
H -4.12487 7.32463 -4.14431
O -3.30625 6.87151 -4.34627
O -3.88428 8.25042 -4.10881
H -0.500105 -9.53654 -7.31288
O -1.16792 -9.18926 -6.72154
O -0.172923 -8.76928 -7.78249
H -2.17506 -1.82041 6.06641
O -2.26569 -2.77324 6.05514
O -2.20721 -1.56536 5.14432
H -3.73894 9.43845 -8.71732
O -3.78821 9.13789 -7.80982
O -3.97357 -9.61446 -8.67614
H 0.408725 5.90805 -11.0211
O -0.054953 5.42101 -11.7024
O -0.279205 6.19411 -10.4201
H -2.03347 -2.24562 -9.62198
O -2.14812 -2.07536 -10.557
O -1.16151 -1.90557 -9.42126
H 4.21839 9.9349 -15.8831
O 4.78229 9.69559 -16.6187
O 4.42505 -9.12641 -15.7113
H -6.69553 -6.06221 -11.7215
O -6.57649 -6.91347 -11.3002
O -6.29308 -6.16291 -12.5841
H -0.516193 -9.3608 -13.4179
O -0.451049 9.92045 -14.0688
O -1.32919 -8.90493 -13.6357
H -2.67531 -0.970751 3.67311
O -3.06572 -0.10743 3.53714
O -3.13287 -1.54105 3.05531
H 6.32913 8.00487 -14.3923
O 5.52051 8.50904 -14.3019
O 6.61046 7.83901 -13.4925
H 6.3901 2.485 -6.40946
O 6.72732 1.76197 -5.88052
O 5.53342 2.18262 -6.71097
H -9.0932 -3.98704 -18.4034
O -8.98395 -3.05333 -18.2232
O -8.2706 -4.24957 -18.8165
H -4.4206 -0.982677 -12.0106
O -5.18412 -0.794074 -12.5563
O -4.67001 -0.682163 -11.1367
H -6.49275 -3.23669 -8.37693
O -5.72557 -3.59377 -8.82434
O -7.23918 -3.62047 -8.83716
H -2.51366 9.96355 -20.6955
O -2.91753 -9.96848 -21.5621
O -3.23666 -9.87077 -20.0853
H 9.68366 4.56915 -4.92606
O 8.76418 4.61435 -4.66386
O -10.0172 4.63007 -4.1043
H -3.39658 -6.98398 -18.2494
O -4.32831 -7.09719 -18.4372
O -3.21851 -6.0678 -18.4618
H 5.16662 1.03447 -15.5306
O 5.48289 1.13112 -16.4289
O 5.94256 0.785423 -15.0285
H 9.4454 9.966 -18.8518
O -9.86623 -9.7791 -18.5468
O 8.91572 -9.23475 -18.6832
H -5.53127 1.0281 -18.5439
O -5.48088 0.0725953 -18.5173
O -4.67947 1.32241 -18.2213
H -7.28762 9.5446 -3.77865
O -7.91807 9.45527 -4.49338
O -6.4324 9.50627 -4.20688
H 0.933019 -4.68983 -18.2585
O 1.69016 -5.16807 -18.5965
O 0.252749 -5.35601 -18.1601
H -3.97645 -7.59569 -1.82189
O -3.91363 -7.58665 -0.866742
O -4.12085 -6.68031 -2.06159
H 8.06093 7.4657 -6.32356
O 7.64154 6.61111 -6.22345
O 8.89992 7.2737 -6.74247
H 1.9488 -8.51549 -14.0072
O 2.06304 -7.74465 -14.5631
O 1.01504 -8.5234 -13.7968
H -0.724267 7.0342 -17.676
O -0.778315 7.98467 -17.5763
O 0.0758633 6.78928 -17.2112
H 8.24221 -3.12563 -15.357
O 9.17283 -3.13513 -15.5808
O 7.96161 -2.22805 -15.5355
H 5.97178 -4.02802 -14.2238
O 6.68238 -3.45565 -14.5131
O 6.15637 -4.19104 -13.2988
H 7.5886 -1.98122 2.38811
O 7.25677 -1.25407 1.86141
O 8.27024 -2.37858 1.84614
H -9.68198 5.92937 -7.2037
O -9.80774 5.42826 -6.39786
O -8.82437 6.34134 -7.09873
H 8.93574 7.49117 -17.9296
O 9.35683 8.27106 -18.2911
O 9.63949 7.02655 -17.4767
H -5.77328 -5.3352 -18.4045
O -6.2771 -5.36905 -17.5912
O -4.98165 -4.84792 -18.1762
H 3.75056 -3.52079 -11.9597
O 3.53967 -4.12017 -11.2438
O 3.92275 -4.09209 -12.7082
H 2.94111 -3.79735 -8.55
O 2.11014 -4.1553 -8.23758
O 3.54381 -4.54081 -8.534
H -8.38129 4.63547 -18.6572
O -7.46961 4.40031 -18.4846
O -8.66173 5.10266 -17.8702
H 4.68693 0.145102 3.44992
O 5.15557 0.490566 4.20974
O 4.86763 -0.79479 3.46348
H -0.907015 1.80672 -5.68504
O -1.8161 1.57577 -5.87598
O -0.475521 1.80927 -6.53951
H -2.40229 1.60085 10.1762
O -3.33345 1.80813 10.0973
O -2.33142 0.695658 9.87317
H 3.93804 -6.7421 -18.6113
O 3.06202 -7.11187 -18.5014
O 4.50796 -7.32028 -18.1042
H 2.864 0.0118013 -18.6768
O 3.73454 0.0834966 -19.0683
O 2.65705 -0.921707 -18.7212
H 10.0898 8.87305 -0.581074
O -10.0455 8.44641 0.274218
O -9.20468 8.8372 -0.922578
H 8.36689 1.30943 -18.4682
O 9.05426 1.64957 -19.041
O 8.43252 1.83926 -17.6737
H 7.43687 -5.70302 -9.61567
O 8.27902 -6.06256 -9.33684
O 7.65989 -5.07344 -10.3014
H -2.68179 5.14475 -16.5515
O -2.9525 5.90228 -17.0702
O -2.16778 4.61055 -17.157
H 2.47484 8.15729 0.19867
O 2.99851 8.95813 0.224332
O 2.92015 7.5997 -0.439347
H 8.98694 0.550265 -3.80791
O 8.24233 0.154388 -3.35504
O 8.82145 1.49203 -3.76401
H 3.7572 -4.24296 -16.1514
O 4.50969 -4.29307 -15.5619
O 3.85075 -5.00341 -16.7252
H -3.60906 9.10804 -12.3419
O -3.67436 8.57645 -11.5485
O -4.18497 8.67282 -12.9705
H 8.90419 -1.28917 -18.4621
O 8.90069 -0.357426 -18.2428
O 9.76368 -1.4399 -18.8556
H -6.12229 4.92783 4.0692
O -5.61363 5.4012 4.72757
O -5.52788 4.84008 3.32404
H 3.95617 5.28623 -8.10934
O 4.73532 4.74965 -8.25511
O 4.17403 6.1352 -8.4941
H -6.03302 -7.03974 11.6805
O -5.85999 -6.75283 10.7838
O -6.22636 -7.97379 11.6005
H 5.86914 -2.98506 -9.73017
O 5.22818 -2.54922 -10.2918
O 5.74628 -3.9181 -9.90501
H 2.44408 -8.37544 -10.4292
O 3.00589 -8.38766 -9.65424
O 2.56366 -9.2383 -10.8259
H -9.95223 0.71862 -16.3245
O -9.75579 1.56807 -15.9294
O -9.70846 0.819723 -17.2446
H 2.3217 -9.31563 -6.42777
O 2.49717 -9.65202 -5.54893
O 1.46057 -9.66822 -6.65222
H -4.32799 -4.67886 -6.90869
O -5.12729 -4.17366 -7.05743
O -4.42429 -5.45034 -7.46709
H -6.40524 6.46499 -18.332
O -5.49034 6.74446 -18.2991
O -6.40389 5.70754 -18.9173
H -6.78799 -0.688601 -2.06916
O -6.35372 -1.2259 -2.73173
O -6.13346 -0.583465 -1.37864
H 2.69704 7.46261 -14.3936
O 3.19717 6.85712 -13.8463
O 3.14617 8.30212 -14.295
H -9.30124 -0.139885 5.2735
O -9.35104 -1.02924 5.62395
O -8.6597 0.301736 5.82998
H 5.55677 -1.03234 11.73
O 5.82932 -1.1228 12.6432
O 6.26265 -0.534937 11.317
H -9.2717 -9.74281 -13.6331
O -9.86713 -9.33157 -14.2597
O -8.90309 9.49127 -14.1063
H -8.54019 -1.10435 -18.6996
O -8.57293 -0.147838 -18.6837
O -7.60645 -1.31302 -18.6709
H 6.85105 5.15993 -10.0382
O 6.34886 4.34521 -10.0543
O 7.74726 4.88563 -9.84377
H -9.37573 1.59536 -0.14355
O -8.77994 1.58068 0.605531
O -8.84105 1.3019 -0.881312
H -4.68916 -6.17253 -14.0796
O -4.74227 -6.51647 -14.9714
O -4.12501 -6.79194 -13.6167
H -3.13581 6.65605 4.11211
O -2.29551 7.08425 3.94847
O -3.55821 6.62054 3.25383
H 4.94406 8.51817 -18.0966
O 4.38572 8.0387 -17.4845
O 5.38852 7.83644 -18.6005
H 1.79967 -5.9623 -15.1074
O 1.39984 -5.97402 -15.977
O 2.39821 -5.21561 -15.1285
H 4.55755 1.84497 -12.2743
O 3.92699 1.19689 -11.9603
O 4.69522 1.61966 -13.1945
H -1.98549 -1.43184 -4.32526
O -2.11003 -2.07933 -5.01918
O -2.41187 -0.641069 -4.6556
H -9.11059 3.10847 -15.4476
O -8.20944 2.89739 -15.2034
O -9.47127 3.54776 -14.6773
H 1.96858 8.83722 -19.0483
O 2.07037 8.70962 -18.105
O 2.82909 8.63001 -19.4128
H 3.04553 2.92912 -18.8408
O 3.16635 1.9816 -18.7789
O 2.20075 3.09128 -18.421
H -5.39324 -1.37217 -4.2937
O -5.16981 -2.30202 -4.33481
O -6.02052 -1.24439 -5.00538
H -2.93594 2.11528 -10.4071
O -2.23777 2.26688 -11.0442
O -3.52476 2.86233 -10.514
H 9.86806 7.19872 8.02375
O 8.99746 7.56604 8.17663
O -10.0618 7.54134 7.16801
H -8.65997 -1.9614 -15.6798
O -8.92444 -1.33895 -16.3573
O -7.7034 -1.96177 -15.7145
H -5.74697 7.05356 -13.0346
O -5.62818 6.84916 -12.107
O -5.8588 6.2013 -13.4558
H -7.36623 -4.5566 -16.1885
O -7.44938 -4.2471 -15.2865
O -8.26063 -4.54587 -16.5294
H -3.31736 3.09643 -2.12244
O -2.713 3.66724 -1.64789
O -2.80089 2.31676 -2.32644
H -6.03923 0.621182 9.19351
O -6.54042 0.181454 8.50669
O -6.51084 1.43966 9.34813
H -0.135986 3.02533 -0.0767627
O 0.231975 3.55484 -0.784232
O 0.280512 3.362 0.716639
H 1.49278 -1.6764 -15.6478
O 2.26296 -2.18406 -15.9034
O 1.78657 -0.765732 -15.6726
H 6.85689 -8.68134 1.50843
O 7.13339 -8.71937 0.59277
O 7.34915 -7.94807 1.87754
H 6.90313 5.13356 -7.0852
O 6.66992 5.20903 -8.01054
O 6.73616 4.216 -6.86969
H 4.59749 7.63628 -9.81361
O 4.79725 8.46616 -9.38044
O 3.83181 7.82665 -10.3556
H 8.74454 -7.45398 -18.8678
O 8.76269 -6.49813 -18.8203
O 7.87047 -7.66129 -19.1983
H 0.409932 -5.21265 -7.31535
O 0.00862193 -5.13561 -8.18099
O -0.330502 -5.28683 -6.71325
H 5.59048 2.97811 -9.24551
O 6.2526 2.29397 -9.1466
O 4.87617 2.55384 -9.72091
H 7.69353 -2.43456 5.25444
O 7.60097 -2.28017 4.31427
O 7.38247 -3.33074 5.38225
H -8.49005 1.69641 -3.01066
O -8.26947 1.84417 -3.93035
O -8.08428 0.855816 -2.79858
H 0.0106247 -8.71407 4.15029
O 0.527109 -9.0851 3.43483
O 0.622819 -8.65735 4.88397
H 0.753134 3.59377 2.66452
O 0.245855 3.9218 3.40706
O 1.66368 3.64264 2.95566
H -4.82506 8.7793 2.13231
O -4.4481 7.93956 1.86965
O -5.70534 8.56179 2.43896
H -4.01717 7.00546 10.5734
O -4.61194 7.41701 9.94636
O -3.40118 7.6987 10.8105
H -0.741511 -7.61039 -9.00154
O -0.688993 -6.7668 -9.45082
O -1.67891 -7.79727 -8.95071
H -1.0295 -2.68245 -18.452
O -0.443048 -2.92765 -17.7363
O -0.552258 -2.92245 -19.2464
H 8.50624 8.23983 -9.43649
O 8.56433 9.19047 -9.34091
O 7.83172 8.10634 -10.1024
H 4.84783 -5.44026 -8.53447
O 4.84769 -5.63946 -7.59817
O 5.73556 -5.65027 -8.8244
H -5.57709 -6.92568 8.81576
O -5.95066 -7.80514 8.75888
O -5.10493 -6.8117 7.99091
H 0.620612 -5.33704 -2.58878
O -0.0808133 -4.84844 -3.01951
O 1.39475 -5.16969 -3.12635
H -6.35584 -4.06374 -1.57731
O -6.95299 -3.41688 -1.2015
O -6.17534 -4.66972 -0.858627
H 7.60328 0.0264706 -6.25863
O 8.02978 0.200242 -7.09781
O 8.2925 0.157472 -5.6074
H 6.68137 7.27621 -11.6529
O 5.84093 7.64023 -11.3747
O 6.81536 6.51896 -11.0829
H 8.73174 -2.56122 -9.38655
O 7.84941 -2.22267 -9.23452
O 8.79803 -3.32458 -8.81283
H 2.11402 -3.25008 1.39539
O 1.85801 -2.45819 1.86828
O 1.87089 -3.07582 0.486082
H -7.48657 8.35444 -15.3009
O -6.76539 8.76329 -15.7794
O -7.05997 7.85505 -14.6045
H -6.08842 -8.31481 -18.7178
O -6.5778 -8.84195 -19.3494
O -6.54009 -7.47093 -18.7085
H -1.34925 -3.40737 -14.7743
O -0.598157 -2.96281 -15.1673
O -1.9574 -2.70181 -14.5539
H 1.42507 -2.91647 -1.14331
O 0.722473 -2.70473 -1.75797
O 2.23025 -2.72222 -1.62311
H -0.755335 -6.90771 -17.7505
O -1.62598 -7.30019 -17.686
O -0.182858 -7.6333 -17.9996
H 8.34146 -4.10193 -11.7565
O 8.76678 -3.48903 -11.1567
O 9.02772 -4.72859 -11.9858
H 0.0118847 -9.84292 -10.641
O -0.408226 -9.50914 -11.4337
O -0.0393786 -9.11752 -10.0186
H -4.04688 -2.36864 -15.9953
O -4.71759 -1.76282 -16.3105
O -3.53538 -1.85592 -15.3694
H 2.17934 8.36007 -11.3076
O 1.87583 7.45391 -11.3622
O 1.43688 8.84014 -10.9408
H -1.0477 4.36453 -18.6642
O -0.827739 5.29605 -18.6753
O -0.440443 3.96707 -19.2883
H 4.46021 0.401055 -4.13526
O 4.56233 -0.421719 -4.61366
O 3.51764 0.567633 -4.14278
H 0.533095 -3.12197 11.4791
O 0.408444 -2.92971 12.4085
O 1.3764 -2.72416 11.2627
H -7.4368 9.94124 -20.1736
O -7.8137 -9.65445 -20.9652
O -8.05701 9.25771 -19.9199
H 8.2132 3.23235 2.73732
O 9.04466 3.61468 2.45672
O 8.3662 2.28758 2.72205
H -7.20804 7.1799 -7.49232
O -7.0881 6.79308 -6.62496
O -7.19481 8.12444 -7.33773
H -7.75104 3.45618 -9.2775
O -8.18903 3.00954 -8.55294
O -7.14199 2.80584 -9.6273
H -4.4452 3.55179 -4.73235
O -5.13609 4.19579 -4.5769
O -3.88405 3.61047 -3.95907
H -1.11186 6.39557 -3.17323
O -1.03754 5.61694 -3.72502
O -0.766978 6.12135 -2.32342
H 4.17421 -1.12514 -13.3004
O 4.02202 -1.9519 -12.8427
O 5.09289 -0.920125 -13.1266
H 7.49829 -9.97601 -20.672
O 8.16382 9.64219 -20.0868
O 7.95785 -9.83428 -21.4996
H -9.86935 -5.92573 -16.1848
O -9.15403 -6.12537 -15.5809
O 10.0137 -6.78131 -16.4869
H -1.65139 9.17467 -4.15678
O -1.59882 8.90024 -3.24122
O -1.94925 -9.89648 -4.11816
H 1.7983 6.02096 -16.5427
O 2.30768 6.50846 -15.8953
O 2.40488 5.8817 -17.27
H -6.7376 -7.90446 -16.1587
O -6.15679 -8.65947 -16.0646
O -6.82324 -7.78389 -17.1044
H -0.16819 1.18474 -15.6349
O -0.0637313 2.11071 -15.416
O 0.723815 0.837585 -15.6415
H -9.74846 -6.47011 -8.64999
O -9.57895 -6.54604 -7.71093
O -9.37692 -5.62213 -8.89315
H 6.22962 -1.77919 -18.0684
O 7.17476 -1.74666 -18.2163
O 6.01562 -2.71196 -18.0879
H -4.36225 -4.46678 -10.1103
O -4.38128 -5.1547 -10.7756
O -3.8981 -3.74146 -10.5283
H -8.821 -7.73617 2.19973
O -8.84569 -8.27428 2.99101
O -8.35965 -6.94051 2.46494
H -2.05299 -8.11912 -3.57878
O -2.84291 -7.72038 -3.2137
O -1.52729 -8.35388 -2.81404
H 8.81789 -6.48239 -3.08622
O 7.93425 -6.34623 -3.4281
O 8.69072 -7.00215 -2.29251
H 6.2737 0.31879 5.74884
O 6.07788 0.156927 6.67176
O 6.81101 -0.427454 5.48303
H 3.30362 5.50714 14.1633
O 2.4393 5.9002 14.2845
O 3.85487 6.22843 13.8598
H 9.03616 7.3352 -3.28124
O 8.5052 7.13796 -4.05291
O 8.76796 8.21746 -3.02448
H -0.709563 9.59586 -18.2448
O -0.928389 9.45806 -19.1665
O 0.152951 -9.96942 -18.2624
H -8.61015 1.74654 -18.5856
O -8.85298 2.67118 -18.5375
O -7.79321 1.73856 -19.0844
H 1.67662 7.94677 -8.07835
O 2.35569 8.60062 -8.24443
O 0.862283 8.37352 -8.34476
H -8.86354 -0.10412 -7.32973
O -8.76207 0.847501 -7.31092
O -7.97332 -0.442349 -7.23309
H 9.29515 5.40187 -9.51425
O 9.04914 6.30343 -9.72135
O 9.72176 5.45985 -8.65929
H -1.45785 5.3829 0.607519
O -1.07427 5.8602 1.34328
O -0.708694 5.13399 0.0661548
H -8.34673 -7.208 -14.2816
O -8.56176 -8.13121 -14.1486
O -7.75883 -7.20493 -15.037
H 0.963835 9.94962 9.5886
O 1.55465 -9.28266 9.49871
O 0.717488 9.72906 8.69027
H 0.381167 -0.927072 2.85951
O 0.700104 -0.459786 2.08735
O -0.289713 -0.352187 3.22785
H -9.24753 -9.28193 14.0183
O -8.79487 9.86341 14.1395
O -8.61036 -8.62161 14.2908
H -5.88371 7.99741 5.99621
O -6.45951 7.41797 6.49518
O -6.2824 8.04168 5.12706
H 4.32457 1.98425 1.34951
O 4.7466 2.8382 1.4439
O 4.49922 1.53739 2.17784
H 7.95948 -4.15401 11.1702
O 7.1355 -4.41503 11.5815
O 8.19219 -3.33109 11.6002
H 5.38515 5.07836 11.1507
O 5.58026 4.18756 11.4416
O 6.01602 5.62674 11.6171
H -1.44802 5.4768 13.8954
O -2.34064 5.32568 14.2062
O -1.32534 4.83448 13.1963
H 8.33216 8.90657 3.15632
O 8.93745 8.1926 3.35659
O 8.85762 9.70082 3.25266
H 5.52967 7.2332 8.5917
O 5.76341 6.35597 8.28824
O 4.83205 7.08809 9.23088
H -8.18089 -1.96339 8.55242
O -7.43948 -2.26902 8.02977
O -8.95286 -2.24586 8.06198
H -7.48671 -7.00617 14.1362
O -6.53159 -6.94564 14.1185
O -7.76388 -6.67654 13.2813
H -5.23711 -2.7749 6.09628
O -4.71992 -1.97887 5.97344
O -4.90144 -3.15639 6.90751
H -5.83353 7.2213 14.2182
O -5.62852 6.34761 14.5512
O -5.70907 7.15267 13.2716
H -9.26739 -3.60392 -1.00636
O -9.05233 -3.21807 -1.85558
O 9.97041 -3.51291 -0.935123
H 3.40519 0.0679569 13.8235
O 3.8546 0.34481 13.025
O 3.14953 0.885476 14.2508
H 5.23178 7.1455 -0.770511
O 6.12566 6.99909 -0.461001
O 5.07789 6.44198 -1.40111
H 0.414193 5.74393 5.09557
O 1.34461 5.54616 5.20255
O 0.2671 6.51201 5.64756
H -4.1253 5.83006 1.28742
O -3.62802 5.10136 0.915993
O -4.10239 6.50612 0.610146
H -4.47489 3.35958 8.21267
O -4.48806 3.43605 7.25857
O -3.74645 3.91616 8.48803
H 4.376 -9.12219 4.87368
O 4.83366 -9.68784 4.25169
O 4.60324 -8.23305 4.60157
H 7.93923 1.40587 0.0966414
O 8.07536 1.37173 1.04355
O 8.81679 1.52055 -0.268028
H 5.3457 -6.66698 -6.0752
O 4.78888 -7.44555 -6.07916
O 5.60871 -6.5647 -5.16049
H -4.91215 2.33089 2.84635
O -4.33227 2.52302 3.58331
O -4.33156 2.29939 2.08593
H -9.24678 4.43166 1.81968
O -8.70587 4.52889 1.03594
O -9.08356 3.53568 2.11431
H 9.68557 6.53304 3.26253
O 10.0776 5.84888 2.71984
O 9.31041 6.06311 4.00733
H 0.675036 5.80682 -0.842535
O 1.37692 5.50737 -1.42043
O 0.719842 6.762 -0.885568
H 5.42061 8.57679 -5.70226
O 6.14398 8.12628 -6.13819
O 5.24269 9.33692 -6.25617
H 0.189315 2.2874 14.0445
O -0.595166 2.30781 14.5927
O -0.0247259 2.84723 13.2982
H 2.79583 9.22669 -4.1837
O 3.66893 8.86968 -4.02101
O 2.34516 8.54246 -4.67866
H 4.20797 9.62769 -13.0763
O 3.69789 -9.89836 -13.7471
O 3.63879 9.61924 -12.3067
H -1.97894 -7.86589 14.2982
O -2.32076 -8.65428 13.8765
O -2.75875 -7.37412 14.5557
H 2.59517 -1.77193 5.22104
O 3.30256 -2.08663 4.65816
O 2.01262 -1.2947 4.63015
H 7.91351 -5.95671 14.0391
O 7.61343 -5.08025 14.2799
O 7.87714 -5.96848 13.0826
H 5.73457 7.94048 5.41171
O 5.20048 7.95157 4.6174
O 5.90422 7.0125 5.5739
H -6.24515 -0.568441 -7.43748
O -6.15041 -1.4713 -7.74097
O -5.75435 -0.0485777 -8.07398
H -6.62068 4.44407 14.109
O -6.94358 3.55708 13.9502
O -6.48909 4.81162 13.235
H 1.38357 -9.77215 14.0445
O 1.37068 -8.92855 13.5924
O 0.596116 -9.76487 14.5887
H -1.56413 8.89157 10.6106
O -1.73437 8.61941 11.5124
O -0.887936 9.56477 10.6867
H 7.4189 -8.21935 6.38753
O 8.05259 -8.28677 7.1018
O 6.6282 -8.63786 6.72796
H -9.45042 3.1502 8.10006
O -9.66262 2.27616 7.77255
O -8.53108 3.09234 8.36025
H -8.71657 -1.89138 -12.4617
O -9.48052 -1.61531 -12.9681
O -9.00952 -1.8635 -11.5508
H -3.99147 -8.35526 6.84367
O -4.06003 -8.51437 5.90222
O -3.75666 -9.20595 7.21439
H -3.09171 4.99606 -7.1273
O -3.31353 4.44238 -6.37862
O -2.63442 5.74493 -6.74478
H -9.42546 5.99679 10.2983
O -9.74087 6.2016 9.41807
O -9.19347 6.84616 10.6738
H 7.83838 -3.38719 -1.12424
O 7.20708 -2.6708 -1.0573
O 7.30128 -4.17922 -1.14499
H -4.59111 9.83323 -1.5923
O -4.35545 -9.28933 -1.94657
O -5.24145 -9.95661 -0.916153
H 6.15608 5.23867 6.0871
O 6.8165 4.71605 6.54205
O 5.32534 4.81315 6.29933
H -1.58912 -0.439564 -0.570452
O -0.65832 -0.316261 -0.756576
O -1.62656 -1.24768 -0.0587861
H 9.06636 -8.27134 12.411
O 9.77376 -8.7482 12.8451
O 8.34084 -8.29807 13.0349
H -8.63664 -5.30994 6.10266
O -8.39777 -5.30807 7.02963
O -8.22892 -6.1015 5.75133
H 7.79615 0.699335 11.023
O 7.32733 0.779943 10.1923
O 8.7177 0.81283 10.7904
H -4.12127 -1.44314 -0.985229
O -3.48439 -0.751413 -0.805969
O -3.86244 -1.79256 -1.83801
H 5.89216 -4.99424 5.29541
O 6.33853 -5.82627 5.45267
O 4.97776 -5.16624 5.52017
H -1.07081 -4.3652 6.38773
O -0.33454 -4.71317 5.88466
O -1.61435 -5.12985 6.57777
H 1.04727 0.422335 -0.30005
O 0.867422 1.35748 -0.396967
O 1.92976 0.309803 -0.653328
H 1.20596 -5.2845 9.08956
O 1.6294 -5.18105 9.9418
O 0.764056 -4.44902 8.93814
H -6.43387 -4.01603 -4.27554
O -7.22038 -3.91833 -4.81231
O -6.76256 -4.2605 -3.41037
H -7.02594 -9.50736 8.07621
O -7.77121 -8.90669 8.0784
O -7.05652 -9.93087 8.93413
H -5.92622 -2.06398 -18.8214
O -5.57127 -2.22087 -19.6964
O -5.43916 -2.66163 -18.254
H 9.0274 -3.78551 -4.11548
O 9.15499 -4.41353 -3.40442
O 8.68048 -3.0037 -3.68574
H -7.66762 4.30873 -0.635914
O -8.08325 3.8822 -1.38533
O -7.00517 3.68385 -0.341098
H 6.90933 -9.21578 -11.1197
O 6.49522 -8.57344 -10.5434
O 6.7961 -8.85678 -11.9999
H 3.40227 2.91063 -3.52759
O 3.74384 2.02637 -3.39474
O 2.63744 2.79042 -4.09049
H -5.0393 1.63215 14.1157
O -5.48766 0.834775 14.3975
O -4.99826 1.56018 13.162
H 9.91919 2.56645 14.4011
O 9.4725 2.66752 13.5605
O 9.76591 1.65392 14.6461
H -9.96768 -3.01784 14.3472
O 10.0758 -2.74576 13.4409
O -10.0934 -3.96668 14.3359
H 8.09233 9.37401 11.676
O 8.52361 -9.78805 11.9234
O 7.7673 9.01484 12.5016
H 5.47777 9.35778 2.77979
O 5.68669 -9.94164 2.13991
O 6.3199 8.94828 2.97821
H -0.914195 -4.92233 -10.0581
O -1.20874 -5.32943 -10.8728
O -1.34073 -4.06546 -10.0501
H -3.21398 -9.40923 0.74893
O -4.0538 -9.81873 0.956877
O -2.56067 9.91335 0.988114
H -1.91653 -4.97779 10.7227
O -1.06969 -4.63257 10.44
O -1.9829 -5.83121 10.2943
H 5.69845 4.25808 2.08562
O 5.67854 5.10344 1.63704
O 6.62203 4.11935 2.29532
H -9.55985 5.28199 14.1884
O -9.71743 4.56978 14.8082
O -9.40145 4.84244 13.3529
H -0.276209 1.74929 -8.69206
O -0.56389 2.65708 -8.78892
O -0.718014 1.28068 -9.40023
H 0.669143 3.25299 -2.91594
O 0.900517 3.61469 -3.77149
O 0.146825 2.47647 -3.11701
H -6.87027 -9.61562 11.0416
O -7.82191 -9.7148 11.0136
O -6.53465 9.58521 10.5983
H -3.47214 -0.883063 13.9057
O -4.02015 -0.523844 13.2079
O -3.77229 -1.78648 14.0055
H -4.15436 -3.83225 8.52316
O -4.22903 -3.42118 9.38442
O -3.28906 -4.24149 8.52679
H 7.03581 9.54207 14.1968
O 6.1661 9.941 14.2229
O 7.50027 9.93018 14.9384
H -7.87954 3.65698 5.80128
O -8.80984 3.7009 5.58025
O -7.43016 3.94292 5.00592
H -6.57971 -0.647128 -13.7172
O -6.77627 0.124 -13.1852
O -7.30379 -1.24884 -13.5443
H 1.46378 4.31493 11.0507
O 1.23962 5.18302 10.7155
O 1.4225 4.40726 12.0026
H 5.68257 -7.20188 -16.6419
O 6.23898 -7.0514 -15.8777
O 6.27957 -7.53589 -17.3115
H -1.02181 3.5365 11.34
O -0.17384 3.3653 10.9303
O -1.56372 2.78743 11.0921
H -1.28763 8.13549 -9.28264
O -2.07291 8.59898 -8.99151
O -0.869214 8.73616 -9.89941
H -0.350375 9.4048 0.355075
O -0.730538 8.77469 -0.257058
O 0.249439 9.92595 -0.178681
H 5.40685 -4.85814 12.0832
O 4.757 -4.99842 11.3945
O 4.89118 -4.76299 12.884
H 5.04265 -6.89261 3.35492
O 5.89168 -6.45602 3.28586
O 4.56731 -6.61844 2.57059
H -7.82686 1.87185 13.7944
O -7.67813 0.928303 13.7325
O -8.63885 1.95453 14.2945
H 3.53902 -5.45212 14.0464
O 2.60325 -5.65045 14.0114
O 3.5927 -4.63457 14.5414
H 1.15777 9.82111 -16.3311
O 1.5614 -9.51123 -15.7533
O 1.20862 8.99928 -15.843
H 5.64717 0.637565 8.91367
O 5.10342 1.3509 9.24794
O 5.2009 -0.159121 9.20068
H 7.5534 -3.4386 14.2674
O 8.37101 -3.06907 14.6009
O 6.95126 -2.69539 14.2313
H -4.69715 -9.3844 -6.28795
O -5.4798 -8.88876 -6.52885
O -4.2614 -8.84079 -5.63152
H 10.0248 -4.54646 1.8522
O -9.74072 -4.73106 1.01333
O 9.41979 -5.27679 1.98206
H -1.56201 -4.42269 -3.91888
O -2.41509 -4.78468 -3.67917
O -1.62281 -3.49471 -3.69221
H -10.0498 2.36516 11.3369
O -9.79093 2.92009 10.6012
O -9.72826 1.49389 11.1051
H -4.15581 6.10874 6.54468
O -3.41836 5.97959 5.94822
O -4.69982 6.76837 6.11432
H 8.66471 -3.73884 -6.7739
O 7.7401 -3.98474 -6.74451
O 8.89982 -3.57945 -5.85976
H -1.01566 9.90277 15.7066
O -1.27056 9.89614 -32.4884
O -1.28693 -9.21602 15.3888
H -2.30012 -2.78233 -6.48852
O -2.90789 -3.4964 -6.68079
O -1.89036 -2.58276 -7.3303
H -2.5556 -4.73108 13.7412
O -2.2389 -5.1812 12.958
O -1.76086 -4.4864 14.2153
H -7.21023 -9.06085 0.0882611
O -7.80626 -9.22778 0.818447
O -7.75386 -8.63071 -0.571835
H 3.19494 4.41842 3.59355
O 3.12432 3.96301 4.43255
O 4.13265 4.42353 3.40144
H -1.26765 -6.44529 3.49885
O -1.20302 -7.33788 3.83849
O -0.401541 -6.06728 3.65115
H -8.9535 -8.06325 9.39574
O -8.91439 -7.2362 9.87607
O -9.88585 -8.27728 9.36194
H -4.78465 -3.39674 13.6901
O -4.15203 -4.0581 13.9705
O -5.61618 -3.6853 14.0663
H -7.77815 9.64345 -10.9234
O -7.8315 8.70562 -10.7394
O -7.85154 9.70572 -11.8758
H -7.64747 1.13406 6.94199
O -7.54283 2.06395 7.14345
O -6.87191 0.911292 6.42708
H 0.423884 -6.76897 -0.31624
O 0.173281 -6.10985 -0.963571
O -0.365407 -7.2962 -0.192633