ITEM: TIMESTEP
2350
ITEM: NUMBER OF ATOMS
1748
ITEM: BOX BOUNDS pp pp pp
-1.0093999999999999e+01 1.0093999999999999e+01
-9.9900000000000002e+00 9.9900000000000002e+00
-3.4911999999999999e+01 1.8785000000000000e+01
ITEM: ATOMS id type element mass x y z vx vy vz ix iy iz
1448 3 C 197 -8.32459 0 -33.0198 0 0 0 0 0 0
1481 3 C 197 -0.832459 -1.44186 -33.0198 0 0 0 0 0 0
1493 3 C 197 -5.82721 -1.44186 -33.0198 0 0 0 0 0 0
1494 3 C 197 -3.32984 -2.88372 -33.0198 0 0 0 0 0 0
1495 3 C 197 -5.82721 -4.32558 -33.0198 0 0 0 0 0 0
1496 3 C 197 -3.32984 0 -33.0198 0 0 0 0 0 0
1498 3 C 197 -1.66492 0 -30.6652 0 0 0 0 0 0
1499 3 C 197 -4.1623 -1.44186 -30.6652 0 0 0 0 0 0
1511 3 C 197 -8.32459 -5.76745 -33.0198 0 0 0 0 0 0
1512 3 C 197 -8.32459 -2.88372 -33.0198 0 0 0 0 0 0
1513 3 C 197 -9.15705 -1.44186 -30.6652 0 0 0 0 0 0
1514 3 C 197 -6.65967 -2.88372 -30.6652 0 0 0 0 0 0
1515 3 C 197 -9.15705 -4.32558 -30.6652 0 0 0 0 0 0
1516 3 C 197 -6.65967 0 -30.6652 0 0 0 0 0 0
1518 3 C 197 -4.99475 0 -28.3107 0 0 0 0 0 0
1519 3 C 197 -7.49213 -1.44186 -28.3107 0 0 0 0 0 0
1531 3 C 197 -9.98951 -2.88372 -28.3107 0 0 0 0 0 0
1532 3 C 197 -9.98951 0 -28.3107 0 0 0 0 0 0
1561 3 C 197 -0.832459 -4.32558 -33.0198 0 0 0 0 0 0
1563 3 C 197 -0.832459 -7.20931 -33.0198 0 0 0 0 0 0
1583 3 C 197 -5.82721 -7.20931 -33.0198 0 0 0 0 0 0
1584 3 C 197 -3.32984 -8.65117 -33.0198 0 0 0 0 0 0
1585 3 C 197 -3.32984 -5.76745 -33.0198 0 0 0 0 0 0
1586 3 C 197 -4.1623 -4.32558 -30.6652 0 0 0 0 0 0
1587 3 C 197 -1.66492 -5.76745 -30.6652 0 0 0 0 0 0
1588 3 C 197 -4.1623 -7.20931 -30.6652 0 0 0 0 0 0
1589 3 C 197 -1.66492 -2.88372 -30.6652 0 0 0 0 0 0
1590 3 C 197 -2.49738 -1.44186 -28.3107 0 0 0 0 0 0
1591 3 C 197 -1.77636e-15 -2.88372 -28.3107 0 0 0 0 0 0
1592 3 C 197 -2.49738 -4.32558 -28.3107 0 0 0 0 0 0
1606 3 C 197 -8.32459 -8.65117 -33.0198 0 0 0 0 0 0
1607 3 C 197 -9.15705 -7.20931 -30.6652 0 0 0 0 0 0
1608 3 C 197 -6.65967 -8.65117 -30.6652 0 0 0 0 0 0
1609 3 C 197 -6.65967 -5.76745 -30.6652 0 0 0 0 0 0
1610 3 C 197 -7.49213 -4.32558 -28.3107 0 0 0 0 0 0
1611 3 C 197 -4.99475 -5.76745 -28.3107 0 0 0 0 0 0
1612 3 C 197 -7.49213 -7.20931 -28.3107 0 0 0 0 0 0
1613 3 C 197 -4.99475 -2.88372 -28.3107 0 0 0 0 0 0
1626 3 C 197 -9.98951 -8.65117 -28.3107 0 0 0 0 0 0
1627 3 C 197 -9.98951 -5.76745 -28.3107 0 0 0 0 0 0
1675 3 C 197 -1.66492 -8.65117 -30.6652 0 0 0 0 0 0
1676 3 C 197 -2.49738 -7.20931 -28.3107 0 0 0 0 0 0
1677 3 C 197 -8.88178e-16 -8.65117 -28.3107 0 0 0 0 0 0
1678 3 C 197 -8.88178e-16 -5.76745 -28.3107 0 0 0 0 0 0
1691 3 C 197 -4.99475 -8.65117 -28.3107 0 0 0 0 0 0
1161 1 C 1.008 -6.79958 -5.40222 -34.7144 0 0 0 0 0 1
1333 2 C 15.999 -5.7296 -9.68141 -34.8909 0 0 0 0 0 1
1480 3 C 197 1.66492 0 -33.0198 0 0 0 0 0 0
1546 3 C 197 9.15705 -1.44186 -33.0198 0 0 0 0 0 0
1547 3 C 197 4.1623 -1.44186 -33.0198 0 0 0 0 0 0
1548 3 C 197 6.65967 -2.88372 -33.0198 0 0 0 0 0 0
1549 3 C 197 4.1623 -4.32558 -33.0198 0 0 0 0 0 0
1550 3 C 197 6.65967 0 -33.0198 0 0 0 0 0 0
1552 3 C 197 8.32459 0 -30.6652 0 0 0 0 0 0
1553 3 C 197 5.82721 -1.44186 -30.6652 0 0 0 0 0 0
1562 3 C 197 1.66492 -5.76745 -33.0198 0 0 0 0 0 0
1564 3 C 197 1.66492 -2.88372 -33.0198 0 0 0 0 0 0
1565 3 C 197 0.832459 -1.44186 -30.6652 0 0 0 0 0 0
1566 3 C 197 3.32984 -2.88372 -30.6652 0 0 0 0 0 0
1567 3 C 197 0.832459 -4.32558 -30.6652 0 0 0 0 0 0
1568 3 C 197 3.32984 0 -30.6652 0 0 0 0 0 0
1570 3 C 197 4.99475 0 -28.3107 0 0 0 0 0 0
1571 3 C 197 2.49738 -1.44186 -28.3107 0 0 0 0 0 0
1593 3 C 197 0 0 -28.3107 0 0 0 0 0 0
1640 3 C 197 9.15705 -4.32558 -33.0198 0 0 0 0 0 0
1641 3 C 197 9.15705 -7.20931 -33.0198 0 0 0 0 0 0
1642 3 C 197 4.1623 -7.20931 -33.0198 0 0 0 0 0 0
1643 3 C 197 6.65967 -8.65117 -33.0198 0 0 0 0 0 0
1644 3 C 197 6.65967 -5.76745 -33.0198 0 0 0 0 0 0
1645 3 C 197 5.82721 -4.32558 -30.6652 0 0 0 0 0 0
1646 3 C 197 8.32459 -5.76745 -30.6652 0 0 0 0 0 0
1647 3 C 197 5.82721 -7.20931 -30.6652 0 0 0 0 0 0
1648 3 C 197 8.32459 -2.88372 -30.6652 0 0 0 0 0 0
1649 3 C 197 7.49213 -1.44186 -28.3107 0 0 0 0 0 0
1650 3 C 197 9.98951 -2.88372 -28.3107 0 0 0 0 0 0
1651 3 C 197 7.49213 -4.32558 -28.3107 0 0 0 0 0 0
1652 3 C 197 9.98951 0 -28.3107 0 0 0 0 0 0
1655 3 C 197 1.66492 -8.65117 -33.0198 0 0 0 0 0 0
1656 3 C 197 0.832459 -7.20931 -30.6652 0 0 0 0 0 0
1657 3 C 197 3.32984 -8.65117 -30.6652 0 0 0 0 0 0
1658 3 C 197 3.32984 -5.76745 -30.6652 0 0 0 0 0 0
1659 3 C 197 2.49738 -4.32558 -28.3107 0 0 0 0 0 0
1660 3 C 197 4.99475 -5.76745 -28.3107 0 0 0 0 0 0
1661 3 C 197 2.49738 -7.20931 -28.3107 0 0 0 0 0 0
1662 3 C 197 4.99475 -2.88372 -28.3107 0 0 0 0 0 0
1713 3 C 197 8.32459 -8.65117 -30.6652 0 0 0 0 0 0
1714 3 C 197 7.49213 -7.20931 -28.3107 0 0 0 0 0 0
1715 3 C 197 9.98951 -8.65117 -28.3107 0 0 0 0 0 0
1716 3 C 197 9.98951 -5.76745 -28.3107 0 0 0 0 0 0
1719 3 C 197 4.99475 -8.65117 -28.3107 0 0 0 0 0 0
1421 1 C 1.008 4.20267 -9.65478 -33.7506 0 0 0 0 1 1
1158 1 C 1.008 0.62649 -5.17259 -34.6927 0 0 0 0 0 1
1423 3 C 197 -3.32984 8.65117 -33.0198 0 0 0 0 0 0
1424 3 C 197 -5.82721 7.20931 -33.0198 0 0 0 0 0 0
1425 3 C 197 -8.32459 5.76745 -33.0198 0 0 0 0 0 0
1426 3 C 197 -8.32459 8.65117 -33.0198 0 0 0 0 0 0
1427 3 C 197 -6.65967 8.65117 -30.6652 0 0 0 0 0 0
1428 3 C 197 -9.15705 7.20931 -30.6652 0 0 0 0 0 0
1429 3 C 197 -9.98951 8.65117 -28.3107 0 0 0 0 0 0
1432 3 C 197 -0.832459 7.20931 -33.0198 0 0 0 0 0 0
1434 3 C 197 -0.832459 4.32558 -33.0198 0 0 0 0 0 0
1438 3 C 197 -5.82721 4.32558 -33.0198 0 0 0 0 0 0
1439 3 C 197 -3.32984 2.88372 -33.0198 0 0 0 0 0 0
1440 3 C 197 -5.82721 1.44186 -33.0198 0 0 0 0 0 0
1441 3 C 197 -3.32984 5.76745 -33.0198 0 0 0 0 0 0
1442 3 C 197 -4.1623 7.20931 -30.6652 0 0 0 0 0 0
1443 3 C 197 -1.66492 5.76745 -30.6652 0 0 0 0 0 0
1444 3 C 197 -4.1623 4.32558 -30.6652 0 0 0 0 0 0
1445 3 C 197 -1.66492 8.65117 -30.6652 0 0 0 0 0 0
1446 3 C 197 -1.77636e-15 8.65117 -28.3107 0 0 0 0 0 0
1447 3 C 197 -2.49738 7.20931 -28.3107 0 0 0 0 0 0
1449 3 C 197 -8.32459 2.88372 -33.0198 0 0 0 0 0 0
1450 3 C 197 -9.15705 4.32558 -30.6652 0 0 0 0 0 0
1451 3 C 197 -6.65967 2.88372 -30.6652 0 0 0 0 0 0
1452 3 C 197 -9.15705 1.44186 -30.6652 0 0 0 0 0 0
1453 3 C 197 -6.65967 5.76745 -30.6652 0 0 0 0 0 0
1454 3 C 197 -7.49213 7.20931 -28.3107 0 0 0 0 0 0
1455 3 C 197 -4.99475 5.76745 -28.3107 0 0 0 0 0 0
1456 3 C 197 -7.49213 4.32558 -28.3107 0 0 0 0 0 0
1457 3 C 197 -4.99475 8.65117 -28.3107 0 0 0 0 0 0
1460 3 C 197 -9.98951 2.88372 -28.3107 0 0 0 0 0 0
1461 3 C 197 -9.98951 5.76745 -28.3107 0 0 0 0 0 0
1479 3 C 197 -0.832459 1.44186 -33.0198 0 0 0 0 0 0
1497 3 C 197 -4.1623 1.44186 -30.6652 0 0 0 0 0 0
1500 3 C 197 -1.66492 2.88372 -30.6652 0 0 0 0 0 0
1501 3 C 197 -2.49738 4.32558 -28.3107 0 0 0 0 0 0
1502 3 C 197 -1.77636e-15 2.88372 -28.3107 0 0 0 0 0 0
1503 3 C 197 -2.49738 1.44186 -28.3107 0 0 0 0 0 0
1504 3 C 197 -1.77636e-15 5.76745 -28.3107 0 0 0 0 0 0
1517 3 C 197 -7.49213 1.44186 -28.3107 0 0 0 0 0 0
1520 3 C 197 -4.99475 2.88372 -28.3107 0 0 0 0 0 0
947 1 C 1.008 -7.28992 4.11133 -34.7407 0 0 0 0 0 1
1430 3 C 197 6.65967 8.65117 -33.0198 0 0 0 0 0 0
1431 3 C 197 4.1623 7.20931 -33.0198 0 0 0 0 0 0
1433 3 C 197 1.66492 5.76745 -33.0198 0 0 0 0 0 0
1435 3 C 197 1.66492 8.65117 -33.0198 0 0 0 0 0 0
1436 3 C 197 3.32984 8.65117 -30.6652 0 0 0 0 0 0
1437 3 C 197 0.832459 7.20931 -30.6652 0 0 0 0 0 0
1467 3 C 197 9.15705 7.20931 -33.0198 0 0 0 0 0 0
1468 3 C 197 9.15705 4.32558 -33.0198 0 0 0 0 0 0
1469 3 C 197 4.1623 4.32558 -33.0198 0 0 0 0 0 0
1470 3 C 197 6.65967 2.88372 -33.0198 0 0 0 0 0 0
1471 3 C 197 4.1623 1.44186 -33.0198 0 0 0 0 0 0
1472 3 C 197 6.65967 5.76745 -33.0198 0 0 0 0 0 0
1473 3 C 197 5.82721 7.20931 -30.6652 0 0 0 0 0 0
1474 3 C 197 8.32459 5.76745 -30.6652 0 0 0 0 0 0
1475 3 C 197 5.82721 4.32558 -30.6652 0 0 0 0 0 0
1476 3 C 197 8.32459 8.65117 -30.6652 0 0 0 0 0 0
1477 3 C 197 9.98951 8.65117 -28.3107 0 0 0 0 0 0
1478 3 C 197 7.49213 7.20931 -28.3107 0 0 0 0 0 0
1482 3 C 197 1.66492 2.88372 -33.0198 0 0 0 0 0 0
1483 3 C 197 0.832459 4.32558 -30.6652 0 0 0 0 0 0
1484 3 C 197 3.32984 2.88372 -30.6652 0 0 0 0 0 0
1485 3 C 197 0.832459 1.44186 -30.6652 0 0 0 0 0 0
1486 3 C 197 3.32984 5.76745 -30.6652 0 0 0 0 0 0
1487 3 C 197 2.49738 7.20931 -28.3107 0 0 0 0 0 0
1488 3 C 197 4.99475 5.76745 -28.3107 0 0 0 0 0 0
1489 3 C 197 2.49738 4.32558 -28.3107 0 0 0 0 0 0
1490 3 C 197 4.99475 8.65117 -28.3107 0 0 0 0 0 0
1545 3 C 197 9.15705 1.44186 -33.0198 0 0 0 0 0 0
1551 3 C 197 5.82721 1.44186 -30.6652 0 0 0 0 0 0
1554 3 C 197 8.32459 2.88372 -30.6652 0 0 0 0 0 0
1555 3 C 197 7.49213 4.32558 -28.3107 0 0 0 0 0 0
1556 3 C 197 9.98951 2.88372 -28.3107 0 0 0 0 0 0
1557 3 C 197 7.49213 1.44186 -28.3107 0 0 0 0 0 0
1558 3 C 197 9.98951 5.76745 -28.3107 0 0 0 0 0 0
1569 3 C 197 2.49738 1.44186 -28.3107 0 0 0 0 0 0
1572 3 C 197 4.99475 2.88372 -28.3107 0 0 0 0 0 0
1098 1 C 1.008 1.63844 4.23741 -34.7422 0 0 0 0 0 1
1420 2 C 15.999 3.95486 9.94544 -34.5966 0 0 0 0 0 1
1533 3 C 197 -8.32459 0 -25.9561 0 0 0 0 0 0
1596 3 C 197 -0.832459 -1.44186 -25.9561 0 0 0 0 0 0
1614 3 C 197 -5.82721 -1.44186 -25.9561 0 0 0 0 0 0
1615 3 C 197 -3.32984 -2.88372 -25.9561 0 0 0 0 0 0
1616 3 C 197 -5.82721 -4.32558 -25.9561 0 0 0 0 0 0
1617 3 C 197 -3.32984 0 -25.9561 0 0 0 0 0 0
1619 3 C 197 -1.66492 0 -23.6016 0 0 0 0 0 0
1620 3 C 197 -4.1623 -1.44186 -23.6016 0 0 0 0 0 0
1628 3 C 197 -8.32459 -5.76745 -25.9561 0 0 0 0 0 0
1629 3 C 197 -8.32459 -2.88372 -25.9561 0 0 0 0 0 0
1630 3 C 197 -9.15705 -1.44186 -23.6016 0 0 0 0 0 0
1631 3 C 197 -6.65967 -2.88372 -23.6016 0 0 0 0 0 0
1632 3 C 197 -9.15705 -4.32558 -23.6016 0 0 0 0 0 0
1633 3 C 197 -6.65967 0 -23.6016 0 0 0 0 0 0
1635 3 C 197 -4.99475 0 -21.247 0 0 0 0 0 0
1636 3 C 197 -7.49213 -1.44186 -21.247 0 0 0 0 0 0
1638 3 C 197 -9.98951 -2.88372 -21.247 0 0 0 0 0 0
1639 3 C 197 -9.98951 0 -21.247 0 0 0 0 0 0
1679 3 C 197 -0.832459 -4.32558 -25.9561 0 0 0 0 0 0
1681 3 C 197 -0.832459 -7.20931 -25.9561 0 0 0 0 0 0
1692 3 C 197 -5.82721 -7.20931 -25.9561 0 0 0 0 0 0
1693 3 C 197 -3.32984 -8.65117 -25.9561 0 0 0 0 0 0
1694 3 C 197 -3.32984 -5.76745 -25.9561 0 0 0 0 0 0
1695 3 C 197 -4.1623 -4.32558 -23.6016 0 0 0 0 0 0
1696 3 C 197 -1.66492 -5.76745 -23.6016 0 0 0 0 0 0
1697 3 C 197 -4.1623 -7.20931 -23.6016 0 0 0 0 0 0
1698 3 C 197 -1.66492 -2.88372 -23.6016 0 0 0 0 0 0
1699 3 C 197 -2.49738 -1.44186 -21.247 0 0 0 0 0 0
1701 3 C 197 -2.49738 -4.32558 -21.247 0 0 0 0 0 0
1703 3 C 197 -8.32459 -8.65117 -25.9561 0 0 0 0 0 0
1704 3 C 197 -9.15705 -7.20931 -23.6016 0 0 0 0 0 0
1705 3 C 197 -6.65967 -8.65117 -23.6016 0 0 0 0 0 0
1706 3 C 197 -6.65967 -5.76745 -23.6016 0 0 0 0 0 0
1707 3 C 197 -7.49213 -4.32558 -21.247 0 0 0 0 0 0
1708 3 C 197 -4.99475 -5.76745 -21.247 0 0 0 0 0 0
1709 3 C 197 -7.49213 -7.20931 -21.247 0 0 0 0 0 0
1710 3 C 197 -4.99475 -2.88372 -21.247 0 0 0 0 0 0
1711 3 C 197 -9.98951 -8.65117 -21.247 0 0 0 0 0 0
1712 3 C 197 -9.98951 -5.76745 -21.247 0 0 0 0 0 0
1739 3 C 197 -1.66492 -8.65117 -23.6016 0 0 0 0 0 0
1740 3 C 197 -2.49738 -7.20931 -21.247 0 0 0 0 0 0
1743 3 C 197 -4.99475 -8.65117 -21.247 0 0 0 0 0 0
1595 3 C 197 1.66492 0 -25.9561 0 0 0 0 0 0
1654 3 C 197 9.15705 -1.44186 -25.9561 0 0 0 0 0 0
1663 3 C 197 4.1623 -1.44186 -25.9561 0 0 0 0 0 0
1664 3 C 197 6.65967 -2.88372 -25.9561 0 0 0 0 0 0
1665 3 C 197 4.1623 -4.32558 -25.9561 0 0 0 0 0 0
1666 3 C 197 6.65967 0 -25.9561 0 0 0 0 0 0
1668 3 C 197 8.32459 0 -23.6016 0 0 0 0 0 0
1669 3 C 197 5.82721 -1.44186 -23.6016 0 0 0 0 0 0
1680 3 C 197 1.66492 -5.76745 -25.9561 0 0 0 0 0 0
1682 3 C 197 1.66492 -2.88372 -25.9561 0 0 0 0 0 0
1683 3 C 197 0.832459 -1.44186 -23.6016 0 0 0 0 0 0
1684 3 C 197 3.32984 -2.88372 -23.6016 0 0 0 0 0 0
1685 3 C 197 0.832459 -4.32558 -23.6016 0 0 0 0 0 0
1686 3 C 197 3.32984 0 -23.6016 0 0 0 0 0 0
1688 3 C 197 4.99475 0 -21.247 0 0 0 0 0 0
1689 3 C 197 2.49738 -1.44186 -21.247 0 0 0 0 0 0
1700 3 C 197 8.88178e-16 -2.88372 -21.247 0 0 0 0 0 0
1702 3 C 197 0 0 -21.247 0 0 0 0 0 0
1717 3 C 197 9.15705 -4.32558 -25.9561 0 0 0 0 0 0
1718 3 C 197 9.15705 -7.20931 -25.9561 0 0 0 0 0 0
1720 3 C 197 4.1623 -7.20931 -25.9561 0 0 0 0 0 0
1721 3 C 197 6.65967 -8.65117 -25.9561 0 0 0 0 0 0
1722 3 C 197 6.65967 -5.76745 -25.9561 0 0 0 0 0 0
1723 3 C 197 5.82721 -4.32558 -23.6016 0 0 0 0 0 0
1724 3 C 197 8.32459 -5.76745 -23.6016 0 0 0 0 0 0
1725 3 C 197 5.82721 -7.20931 -23.6016 0 0 0 0 0 0
1726 3 C 197 8.32459 -2.88372 -23.6016 0 0 0 0 0 0
1727 3 C 197 7.49213 -1.44186 -21.247 0 0 0 0 0 0
1728 3 C 197 9.98951 -2.88372 -21.247 0 0 0 0 0 0
1729 3 C 197 7.49213 -4.32558 -21.247 0 0 0 0 0 0
1730 3 C 197 9.98951 0 -21.247 0 0 0 0 0 0
1731 3 C 197 1.66492 -8.65117 -25.9561 0 0 0 0 0 0
1732 3 C 197 0.832459 -7.20931 -23.6016 0 0 0 0 0 0
1733 3 C 197 3.32984 -8.65117 -23.6016 0 0 0 0 0 0
1734 3 C 197 3.32984 -5.76745 -23.6016 0 0 0 0 0 0
1735 3 C 197 2.49738 -4.32558 -21.247 0 0 0 0 0 0
1736 3 C 197 4.99475 -5.76745 -21.247 0 0 0 0 0 0
1737 3 C 197 2.49738 -7.20931 -21.247 0 0 0 0 0 0
1738 3 C 197 4.99475 -2.88372 -21.247 0 0 0 0 0 0
1741 3 C 197 4.44089e-16 -8.65117 -21.247 0 0 0 0 0 0
1742 3 C 197 1.77636e-15 -5.76745 -21.247 0 0 0 0 0 0
1744 3 C 197 8.32459 -8.65117 -23.6016 0 0 0 0 0 0
1745 3 C 197 7.49213 -7.20931 -21.247 0 0 0 0 0 0
1746 3 C 197 9.98951 -8.65117 -21.247 0 0 0 0 0 0
1747 3 C 197 9.98951 -5.76745 -21.247 0 0 0 0 0 0
1748 3 C 197 4.99475 -8.65117 -21.247 0 0 0 0 0 0
1458 3 C 197 -3.32984 8.65117 -25.9561 0 0 0 0 0 0
1459 3 C 197 -5.82721 7.20931 -25.9561 0 0 0 0 0 0
1462 3 C 197 -8.32459 5.76745 -25.9561 0 0 0 0 0 0
1463 3 C 197 -8.32459 8.65117 -25.9561 0 0 0 0 0 0
1464 3 C 197 -6.65967 8.65117 -23.6016 0 0 0 0 0 0
1465 3 C 197 -9.15705 7.20931 -23.6016 0 0 0 0 0 0
1466 3 C 197 -9.98951 8.65117 -21.247 0 0 0 0 0 0
1505 3 C 197 -0.832459 7.20931 -25.9561 0 0 0 0 0 0
1507 3 C 197 -0.832459 4.32558 -25.9561 0 0 0 0 0 0
1521 3 C 197 -5.82721 4.32558 -25.9561 0 0 0 0 0 0
1522 3 C 197 -3.32984 2.88372 -25.9561 0 0 0 0 0 0
1523 3 C 197 -5.82721 1.44186 -25.9561 0 0 0 0 0 0
1524 3 C 197 -3.32984 5.76745 -25.9561 0 0 0 0 0 0
1525 3 C 197 -4.1623 7.20931 -23.6016 0 0 0 0 0 0
1526 3 C 197 -1.66492 5.76745 -23.6016 0 0 0 0 0 0
1527 3 C 197 -4.1623 4.32558 -23.6016 0 0 0 0 0 0
1528 3 C 197 -1.66492 8.65117 -23.6016 0 0 0 0 0 0
1530 3 C 197 -2.49738 7.20931 -21.247 0 0 0 0 0 0
1534 3 C 197 -8.32459 2.88372 -25.9561 0 0 0 0 0 0
1535 3 C 197 -9.15705 4.32558 -23.6016 0 0 0 0 0 0
1536 3 C 197 -6.65967 2.88372 -23.6016 0 0 0 0 0 0
1537 3 C 197 -9.15705 1.44186 -23.6016 0 0 0 0 0 0
1538 3 C 197 -6.65967 5.76745 -23.6016 0 0 0 0 0 0
1539 3 C 197 -7.49213 7.20931 -21.247 0 0 0 0 0 0
1540 3 C 197 -4.99475 5.76745 -21.247 0 0 0 0 0 0
1541 3 C 197 -7.49213 4.32558 -21.247 0 0 0 0 0 0
1542 3 C 197 -4.99475 8.65117 -21.247 0 0 0 0 0 0
1543 3 C 197 -9.98951 2.88372 -21.247 0 0 0 0 0 0
1544 3 C 197 -9.98951 5.76745 -21.247 0 0 0 0 0 0
1594 3 C 197 -0.832459 1.44186 -25.9561 0 0 0 0 0 0
1618 3 C 197 -4.1623 1.44186 -23.6016 0 0 0 0 0 0
1621 3 C 197 -1.66492 2.88372 -23.6016 0 0 0 0 0 0
1622 3 C 197 -2.49738 4.32558 -21.247 0 0 0 0 0 0
1624 3 C 197 -2.49738 1.44186 -21.247 0 0 0 0 0 0
1634 3 C 197 -7.49213 1.44186 -21.247 0 0 0 0 0 0
1637 3 C 197 -4.99475 2.88372 -21.247 0 0 0 0 0 0
628 2 C 15.999 -7.53209 9.91106 -19.7346 0 0 0 0 0 0
630 1 C 1.008 -7.44993 9.19258 -20.3686 0 0 0 0 0 0
1491 3 C 197 6.65967 8.65117 -25.9561 0 0 0 0 0 0
1492 3 C 197 4.1623 7.20931 -25.9561 0 0 0 0 0 0
1506 3 C 197 1.66492 5.76745 -25.9561 0 0 0 0 0 0
1508 3 C 197 1.66492 8.65117 -25.9561 0 0 0 0 0 0
1509 3 C 197 3.32984 8.65117 -23.6016 0 0 0 0 0 0
1510 3 C 197 0.832459 7.20931 -23.6016 0 0 0 0 0 0
1529 3 C 197 0 8.65117 -21.247 0 0 0 0 0 0
1559 3 C 197 9.15705 7.20931 -25.9561 0 0 0 0 0 0
1560 3 C 197 9.15705 4.32558 -25.9561 0 0 0 0 0 0
1573 3 C 197 4.1623 4.32558 -25.9561 0 0 0 0 0 0
1574 3 C 197 6.65967 2.88372 -25.9561 0 0 0 0 0 0
1575 3 C 197 4.1623 1.44186 -25.9561 0 0 0 0 0 0
1576 3 C 197 6.65967 5.76745 -25.9561 0 0 0 0 0 0
1577 3 C 197 5.82721 7.20931 -23.6016 0 0 0 0 0 0
1578 3 C 197 8.32459 5.76745 -23.6016 0 0 0 0 0 0
1579 3 C 197 5.82721 4.32558 -23.6016 0 0 0 0 0 0
1580 3 C 197 8.32459 8.65117 -23.6016 0 0 0 0 0 0
1581 3 C 197 9.98951 8.65117 -21.247 0 0 0 0 0 0
1582 3 C 197 7.49213 7.20931 -21.247 0 0 0 0 0 0
1597 3 C 197 1.66492 2.88372 -25.9561 0 0 0 0 0 0
1598 3 C 197 0.832459 4.32558 -23.6016 0 0 0 0 0 0
1599 3 C 197 3.32984 2.88372 -23.6016 0 0 0 0 0 0
1600 3 C 197 0.832459 1.44186 -23.6016 0 0 0 0 0 0
1601 3 C 197 3.32984 5.76745 -23.6016 0 0 0 0 0 0
1602 3 C 197 2.49738 7.20931 -21.247 0 0 0 0 0 0
1603 3 C 197 4.99475 5.76745 -21.247 0 0 0 0 0 0
1604 3 C 197 2.49738 4.32558 -21.247 0 0 0 0 0 0
1605 3 C 197 4.99475 8.65117 -21.247 0 0 0 0 0 0
1623 3 C 197 8.88178e-16 2.88372 -21.247 0 0 0 0 0 0
1625 3 C 197 1.77636e-15 5.76745 -21.247 0 0 0 0 0 0
1653 3 C 197 9.15705 1.44186 -25.9561 0 0 0 0 0 0
1667 3 C 197 5.82721 1.44186 -23.6016 0 0 0 0 0 0
1670 3 C 197 8.32459 2.88372 -23.6016 0 0 0 0 0 0
1671 3 C 197 7.49213 4.32558 -21.247 0 0 0 0 0 0
1672 3 C 197 9.98951 2.88372 -21.247 0 0 0 0 0 0
1673 3 C 197 7.49213 1.44186 -21.247 0 0 0 0 0 0
1674 3 C 197 9.98951 5.76745 -21.247 0 0 0 0 0 0
1687 3 C 197 2.49738 1.44186 -21.247 0 0 0 0 0 0
1690 3 C 197 4.99475 2.88372 -21.247 0 0 0 0 0 0
16 2 C 15.999 -7.90369 -3.25196 -15.3967 0 0 0 0 0 0
17 1 C 1.008 -7.65212 -2.94406 -16.2897 0 0 0 0 0 0
18 1 C 1.008 -8.86386 -3.0136 -15.3986 0 0 0 0 0 0
104 1 C 1.008 -6.39262 -1.84583 -12.8014 0 0 0 0 0 0
133 2 C 15.999 -7.37522 -2.71719 -18.2048 0 0 0 0 0 0
134 1 C 1.008 -7.60647 -1.79326 -18.4355 0 0 0 0 0 0
135 1 C 1.008 -6.41284 -2.73602 -18.3771 0 0 0 0 0 0
182 1 C 1.008 -0.588474 -5.77356 -17.4668 0 0 0 0 0 0
183 1 C 1.008 -0.75162 -5.76375 -18.9582 0 0 0 0 0 0
189 1 C 1.008 -4.14343 -3.57476 -12.0379 0 0 0 0 0 0
202 2 C 15.999 -4.62027 -5.70825 -18.2497 0 0 0 0 0 0
203 1 C 1.008 -4.23056 -6.37349 -17.6536 0 0 0 0 0 0
204 1 C 1.008 -5.34226 -6.24954 -18.6181 0 0 0 0 0 0
208 2 C 15.999 -8.63372 -5.71259 -16.375 0 0 0 0 0 0
209 1 C 1.008 -9.14996 -5.19749 -17.0308 0 0 0 0 0 0
210 1 C 1.008 -8.16681 -4.97568 -15.9361 0 0 0 0 0 0
217 2 C 15.999 -7.12462 -3.68201 -12.7407 0 0 0 0 0 0
218 1 C 1.008 -7.38368 -3.58074 -13.6879 0 0 0 0 0 0
219 1 C 1.008 -7.52396 -4.54493 -12.5252 0 0 0 0 0 0
220 2 C 15.999 -3.60309 -2.79186 -13.5769 0 0 0 0 0 0
221 1 C 1.008 -2.85651 -3.41024 -13.7365 0 0 0 0 0 0
222 1 C 1.008 -3.5511 -2.24167 -14.389 0 0 0 0 0 0
226 2 C 15.999 -4.60028 -2.99834 -18.2049 0 0 0 0 0 0
227 1 C 1.008 -4.5861 -3.96427 -18.4057 0 0 0 0 0 0
228 1 C 1.008 -4.31048 -3.01448 -17.2852 0 0 0 0 0 0
238 2 C 15.999 -5.10438 -7.97554 -12.9305 0 0 0 0 0 0
239 1 C 1.008 -6.02829 -8.30559 -12.9058 0 0 0 0 0 0
240 1 C 1.008 -4.76982 -8.38811 -13.7364 0 0 0 0 0 0
290 1 C 1.008 -9.6931 -0.991883 -18.6469 0 0 0 0 0 0
337 2 C 15.999 -1.49018 -4.55209 -13.8171 0 0 0 0 0 0
338 1 C 1.008 -0.625572 -4.08661 -13.8393 0 0 0 0 0 0
339 1 C 1.008 -1.35834 -5.08646 -13.0092 0 0 0 0 0 0
349 2 C 15.999 -3.6578 -7.82924 -16.6975 0 0 0 0 0 0
350 1 C 1.008 -3.50279 -8.49709 -16.008 0 0 0 0 0 0
351 1 C 1.008 -2.89294 -7.23929 -16.5376 0 0 0 0 0 0
361 2 C 15.999 -9.68654 -4.21547 -18.4256 0 0 0 0 0 0
362 1 C 1.008 10.0573 -3.33371 -18.4429 0 0 0 -1 0 0
363 1 C 1.008 -8.77178 -3.88375 -18.5439 0 0 0 0 0 0
407 1 C 1.008 -3.89317 -1.33849 -18.6626 0 0 0 0 0 0
408 1 C 1.008 -2.51573 -0.716183 -18.5759 0 0 0 0 0 0
412 2 C 15.999 -0.82441 -1.11684 -18.5742 0 0 0 0 0 0
413 1 C 1.008 -0.170441 -0.391365 -18.6175 0 0 0 0 0 0
414 1 C 1.008 -0.224498 -1.88369 -18.6641 0 0 0 0 0 0
535 2 C 15.999 -9.40813 -7.28368 -14.2465 0 0 0 0 0 0
537 1 C 1.008 -8.99393 -6.73419 -14.9449 0 0 0 0 0 0
592 2 C 15.999 -7.70263 -8.87846 -12.7659 0 0 0 0 0 0
593 1 C 1.008 -8.30981 -8.34231 -13.3224 0 0 0 0 0 0
594 1 C 1.008 -8.18748 -9.73278 -12.7546 0 0 0 0 0 0
595 2 C 15.999 -8.91172 -7.56079 -18.3871 0 0 0 0 0 0
596 1 C 1.008 -7.98273 -7.6712 -18.6783 0 0 0 0 0 0
597 1 C 1.008 -8.75013 -7.01968 -17.5838 0 0 0 0 0 0
598 2 C 15.999 -2.65039 -9.23778 -14.3656 0 0 0 0 0 0
599 1 C 1.008 -1.75021 -8.96563 -14.6346 0 0 0 0 0 0
610 2 C 15.999 -6.17874 -7.99825 -18.5389 0 0 0 0 0 0
611 1 C 1.008 -6.47078 -8.8094 -19.011 0 0 0 0 0 0
612 1 C 1.008 -5.46023 -8.33031 -17.9789 0 0 0 0 0 0
613 2 C 15.999 -1.51528 -6.21861 -16.0324 0 0 0 0 0 0
614 1 C 1.008 -0.989548 -6.88304 -15.534 0 0 0 0 0 0
615 1 C 1.008 -1.63856 -5.54136 -15.3337 0 0 0 0 0 0
181 2 C 15.999 -0.0860064 -5.56738 -18.2872 0 0 0 0 0 0
244 2 C 15.999 -3.63352 -1.0275 -15.7159 0 0 0 0 0 0
698 1 C 1.008 -9.71626 -9.10715 -18.345 0 0 0 0 1 0
105 1 C 1.008 -4.91186 -1.70944 -12.9702 0 0 0 0 0 0
207 1 C 1.008 -10.0244 -6.66451 -12.6872 0 0 0 0 0 0
103 2 C 15.999 -5.68878 -1.18336 -12.6869 0 0 0 0 0 0
343 2 C 15.999 -0.094524 -8.04826 -14.6062 0 0 0 0 0 0
245 1 C 1.008 -3.68974 -0.764863 -16.6594 0 0 0 0 0 0
246 1 C 1.008 -4.08755 -0.272414 -15.2779 0 0 0 0 0 0
325 2 C 15.999 -8.12939 -0.0306343 -18.5451 0 0 0 0 0 0
406 2 C 15.999 -3.46597 -0.487859 -18.4329 0 0 0 0 0 0
264 1 C 1.008 -1.95882 -0.403104 -15.4666 0 0 0 0 0 0
600 1 C 1.008 -2.54592 -9.17237 -13.3928 0 0 0 0 0 0
89 1 C 1.008 -0.00920532 -1.29073 -15.8675 0 0 0 0 0 0
289 2 C 15.999 9.77917 -1.64082 -18.5144 0 0 0 -1 0 0
536 1 C 1.008 9.97511 -7.54009 -14.7535 0 0 0 -1 0 0
291 1 C 1.008 8.97323 -1.09791 -18.6219 0 0 0 -1 0 0
344 1 C 1.008 0.13777 -8.11508 -13.6552 0 0 0 0 0 0
3 1 C 1.008 1.98992 -0.692724 -15.7897 0 0 0 0 0 0
37 2 C 15.999 3.2575 -5.0052 -13.9275 0 0 0 0 0 0
39 1 C 1.008 4.1124 -4.66505 -14.266 0 0 0 0 0 0
88 2 C 15.999 0.735224 -1.9294 -15.835 0 0 0 0 0 0
90 1 C 1.008 0.746898 -2.28608 -16.7487 0 0 0 0 0 0
91 2 C 15.999 1.07202 -3.07372 -18.3504 0 0 0 0 0 0
92 1 C 1.008 2.02023 -3.24579 -18.5184 0 0 0 0 0 0
93 1 C 1.008 0.694265 -3.97642 -18.3885 0 0 0 0 0 0
97 2 C 15.999 5.20225 -0.10746 -15.9895 0 0 0 0 0 0
98 1 C 1.008 4.22862 0.000948328 -15.8929 0 0 0 0 0 0
99 1 C 1.008 5.41546 -0.641467 -15.1949 0 0 0 0 0 0
118 2 C 15.999 4.41026 -1.14906 -18.4528 0 0 0 0 0 0
119 1 C 1.008 4.82911 -0.923371 -17.601 0 0 0 0 0 0
120 1 C 1.008 4.15687 -0.254664 -18.7504 0 0 0 0 0 0
130 2 C 15.999 7.45566 -8.83082 -18.7619 0 0 0 0 0 0
131 1 C 1.008 6.53649 -8.49323 -18.7956 0 0 0 0 0 0
132 1 C 1.008 7.92391 -7.9753 -18.792 0 0 0 0 0 0
190 2 C 15.999 0.989824 -3.44346 -13.5911 0 0 0 0 0 0
191 1 C 1.008 1.0001 -2.84112 -14.37 0 0 0 0 0 0
192 1 C 1.008 1.79192 -3.98237 -13.7617 0 0 0 0 0 0
250 2 C 15.999 2.61305 -6.21524 -18.1803 0 0 0 0 0 0
251 1 C 1.008 1.66047 -6.06713 -18.3524 0 0 0 0 0 0
252 1 C 1.008 2.98425 -5.32129 -18.3523 0 0 0 0 0 0
256 2 C 15.999 3.79969 -3.78166 -18.5629 0 0 0 0 0 0
257 1 C 1.008 4.70912 -4.13184 -18.6371 0 0 0 0 0 0
258 1 C 1.008 3.9973 -2.81414 -18.581 0 0 0 0 0 0
274 2 C 15.999 7.19155 -2.88791 -17.0562 0 0 0 0 0 0
275 1 C 1.008 6.89822 -3.53644 -17.7267 0 0 0 0 0 0
276 1 C 1.008 7.21831 -2.06163 -17.5769 0 0 0 0 0 0
331 2 C 15.999 2.32615 -7.1155 -15.5374 0 0 0 0 0 0
332 1 C 1.008 2.43951 -6.74623 -16.4373 0 0 0 0 0 0
333 1 C 1.008 2.63576 -6.36981 -14.9787 0 0 0 0 0 0
345 1 C 1.008 0.792812 -7.85362 -14.9826 0 0 0 0 0 0
475 2 C 15.999 8.38964 -0.692416 -14.0801 0 0 0 0 0 0
476 1 C 1.008 7.45765 -0.999595 -14.012 0 0 0 0 0 0
484 2 C 15.999 7.44326 -0.291357 -18.4028 0 0 0 0 0 0
487 2 C 15.999 6.33478 -5.07238 -18.5321 0 0 0 0 0 0
488 1 C 1.008 7.22738 -5.43312 -18.6881 0 0 0 0 0 0
489 1 C 1.008 5.8329 -5.91302 -18.4903 0 0 0 0 0 0
490 2 C 15.999 5.83476 -1.66551 -13.7842 0 0 0 0 0 0
491 1 C 1.008 5.78062 -2.57119 -14.1602 0 0 0 0 0 0
502 2 C 15.999 5.05443 -7.49028 -18.3824 0 0 0 0 0 0
503 1 C 1.008 4.95088 -7.93293 -17.5129 0 0 0 0 0 0
504 1 C 1.008 4.13932 -7.16108 -18.5094 0 0 0 0 0 0
505 2 C 15.999 5.73384 -4.14383 -14.974 0 0 0 0 0 0
506 1 C 1.008 6.00501 -5.08519 -15.0405 0 0 0 0 0 0
507 1 C 1.008 6.23921 -3.75249 -15.7181 0 0 0 0 0 0
520 2 C 15.999 6.21731 -6.86849 -14.9114 0 0 0 0 0 0
521 1 C 1.008 6.42433 -7.05952 -13.9734 0 0 0 0 0 0
522 1 C 1.008 5.64061 -7.62026 -15.163 0 0 0 0 0 0
532 2 C 15.999 8.84273 -6.37021 -18.5442 0 0 0 0 0 0
533 1 C 1.008 9.66604 -6.88839 -18.6895 0 0 0 0 0 0
534 1 C 1.008 9.26785 -5.48099 -18.5709 0 0 0 0 0 0
604 2 C 15.999 4.50479 -8.79306 -16.0374 0 0 0 0 0 0
605 1 C 1.008 3.63196 -8.46664 -15.7399 0 0 0 0 0 0
606 1 C 1.008 4.28681 -9.67831 -16.3923 0 0 0 0 0 0
634 2 C 15.999 9.62012 -2.72659 -15.4997 0 0 0 0 0 0
635 1 C 1.008 9.23028 -2.01167 -14.9613 0 0 0 0 0 0
636 1 C 1.008 8.91326 -2.85241 -16.1596 0 0 0 0 0 0
661 2 C 15.999 8.68596 -7.44796 -15.9599 0 0 0 0 0 0
662 1 C 1.008 7.78946 -7.24001 -15.6315 0 0 0 0 0 0
663 1 C 1.008 8.68157 -7.00606 -16.8253 0 0 0 0 0 0
699 1 C 1.008 9.08088 -9.64754 -18.5318 0 0 0 -1 1 0
38 1 C 1.008 3.4527 -5.13504 -12.9749 0 0 0 0 0 0
477 1 C 1.008 8.56184 -0.406454 -13.1763 0 0 0 0 0 0
492 1 C 1.008 5.43654 -1.81701 -12.9008 0 0 0 0 0 0
643 2 C 15.999 7.14619 -7.0055 -12.2463 0 0 0 0 0 0
644 1 C 1.008 8.12 -6.92182 -12.1885 0 0 0 0 0 0
591 1 C 1.008 6.14295 -8.45279 -11.8914 0 0 0 0 0 0
67 2 C 15.999 -8.79263 1.76562 -16.5431 0 0 0 0 0 0
68 1 C 1.008 -8.90779 2.52504 -17.1512 0 0 0 0 0 0
69 1 C 1.008 -7.94259 2.00781 -16.1188 0 0 0 0 0 0
153 1 C 1.008 -1.33435 7.13601 -16.0767 0 0 0 0 0 0
154 2 C 15.999 -7.74618 6.31644 -12.3687 0 0 0 0 0 0
156 1 C 1.008 -8.57307 5.8737 -12.0962 0 0 0 0 0 0
287 1 C 1.008 -4.93941 4.13035 -13.1303 0 0 0 0 0 0
292 2 C 15.999 -4.74155 0.938369 -14.1577 0 0 0 0 0 0
293 1 C 1.008 -4.64939 1.74532 -13.5971 0 0 0 0 0 0
294 1 C 1.008 -5.14868 0.310038 -13.5291 0 0 0 0 0 0
298 2 C 15.999 -5.31008 5.82869 -13.7866 0 0 0 0 0 0
299 1 C 1.008 -6.2153 6.06435 -13.5016 0 0 0 0 0 0
300 1 C 1.008 -4.87275 6.71036 -13.765 0 0 0 0 0 0
322 2 C 15.999 -6.17012 2.41665 -15.917 0 0 0 0 0 0
323 1 C 1.008 -5.74226 1.78883 -15.2978 0 0 0 0 0 0
324 1 C 1.008 -5.52162 3.15006 -15.8546 0 0 0 0 0 0
326 1 C 1.008 -8.43416 0.462259 -17.7563 0 0 0 0 0 0
327 1 C 1.008 -7.46285 0.601226 -18.8762 0 0 0 0 0 0
334 2 C 15.999 -1.80451 2.72848 -15.7656 0 0 0 0 0 0
335 1 C 1.008 -2.6774 3.18146 -15.7284 0 0 0 0 0 0
346 2 C 15.999 -4.13258 4.26893 -15.7614 0 0 0 0 0 0
347 1 C 1.008 -4.11535 4.73391 -16.6271 0 0 0 0 0 0
348 1 C 1.008 -4.51233 4.94486 -15.161 0 0 0 0 0 0
358 2 C 15.999 -6.35852 2.15454 -18.5928 0 0 0 0 0 0
359 1 C 1.008 -6.25804 2.20598 -17.617 0 0 0 0 0 0
360 1 C 1.008 -5.41673 2.23972 -18.8504 0 0 0 0 0 0
380 1 C 1.008 -1.1041 2.42182 -17.4083 0 0 0 0 0 0
391 2 C 15.999 -3.63809 2.22661 -18.6309 0 0 0 0 0 0
392 1 C 1.008 -3.66756 1.2447 -18.585 0 0 0 0 0 0
393 1 C 1.008 -2.6666 2.34369 -18.685 0 0 0 0 0 0
454 2 C 15.999 -3.7971 5.01938 -18.3777 0 0 0 0 0 0
455 1 C 1.008 -2.86499 5.22926 -18.5805 0 0 0 0 0 0
456 1 C 1.008 -3.84574 4.07886 -18.63 0 0 0 0 0 0
457 2 C 15.999 -8.67664 3.55835 -18.6276 0 0 0 0 0 0
458 1 C 1.008 -7.7555 3.21703 -18.6494 0 0 0 0 0 0
459 1 C 1.008 -8.90685 3.49355 -19.563 0 0 0 0 0 0
607 2 C 15.999 -10.0128 8.33642 -16.1929 0 0 0 0 0 0
609 1 C 1.008 -9.91531 9.10122 -16.7858 0 0 0 0 0 0
629 1 C 1.008 -8.43686 9.79704 -19.4003 0 0 0 0 0 0
694 2 C 15.999 -9.14419 8.72834 -12.5519 0 0 0 0 0 0
695 1 C 1.008 -9.97822 8.52377 -13.0218 0 0 0 0 0 0
696 1 C 1.008 -8.63048 7.90951 -12.7081 0 0 0 0 0 0
701 1 C 1.008 -3.60383 9.04396 -14.0226 0 0 0 0 0 0
151 2 C 15.999 -0.560916 6.57314 -16.1994 0 0 0 0 0 0
152 1 C 1.008 -0.780943 6.12437 -17.0475 0 0 0 0 0 0
263 1 C 1.008 -1.47702 1.01324 -15.6097 0 0 0 0 0 0
336 1 C 1.008 -1.23243 3.39164 -15.3289 0 0 0 0 0 0
379 2 C 15.999 -0.936802 2.43846 -18.3732 0 0 0 0 0 0
381 1 C 1.008 -0.157544 1.84765 -18.4506 0 0 0 0 0 0
616 2 C 15.999 -1.0295 5.16571 -18.5081 0 0 0 0 0 0
617 1 C 1.008 -0.111818 5.41509 -18.7674 0 0 0 0 0 0
618 1 C 1.008 -0.963921 4.19052 -18.5914 0 0 0 0 0 0
286 2 C 15.999 -4.85395 3.25766 -12.6954 0 0 0 0 0 0
700 2 C 15.999 -4.05981 8.29004 -13.6133 0 0 0 0 0 0
126 1 C 1.008 -0.106436 5.16619 -15.2058 0 0 0 0 0 0
262 2 C 15.999 -1.12929 0.111162 -15.4356 0 0 0 0 0 0
702 1 C 1.008 -3.99985 8.50804 -12.6636 0 0 0 0 0 0
697 2 C 15.999 10.002 -9.96735 -18.4318 0 0 0 -1 1 0
1 2 C 15.999 2.49533 0.136273 -15.9257 0 0 0 0 0 0
608 1 C 1.008 9.95294 7.6459 -16.8386 0 0 0 -1 0 0
178 2 C 15.999 3.90396 1.58476 -18.6028 0 0 0 0 0 0
179 1 C 1.008 4.04082 2.44601 -19.0353 0 0 0 0 0 0
485 1 C 1.008 6.71014 0.266676 -18.6869 0 0 0 0 0 0
486 1 C 1.008 7.84306 0.232387 -17.6754 0 0 0 0 0 0
370 2 C 15.999 8.66786 8.14068 -13.9729 0 0 0 -1 0 0
371 1 C 1.008 7.95776 7.6575 -14.4397 0 0 0 -1 0 0
372 1 C 1.008 9.27013 8.29393 -14.7383 0 0 0 -1 0 0
2 1 C 1.008 2.03129 0.738962 -15.3066 0 0 0 0 0 0
52 2 C 15.999 0.902292 1.66122 -14.2995 0 0 0 0 0 0
53 1 C 1.008 0.130671 1.09548 -14.5029 0 0 0 0 0 0
54 1 C 1.008 0.538646 2.55768 -14.4512 0 0 0 0 0 0
79 2 C 15.999 2.79142 5.36824 -14.1547 0 0 0 0 0 0
80 1 C 1.008 3.0021 4.4515 -13.8735 0 0 0 0 0 0
81 1 C 1.008 3.61129 5.81335 -13.8507 0 0 0 0 0 0
82 2 C 15.999 3.27692 2.75985 -13.4794 0 0 0 0 0 0
83 1 C 1.008 2.4507 2.24201 -13.5738 0 0 0 0 0 0
124 2 C 15.999 0.210323 4.36137 -14.7455 0 0 0 0 0 0
125 1 C 1.008 1.07633 4.69046 -14.4318 0 0 0 0 0 0
136 2 C 15.999 8.99264 4.63192 -18.534 0 0 0 0 0 0
137 1 C 1.008 9.14331 5.5953 -18.6441 0 0 0 0 0 0
138 1 C 1.008 9.90149 4.3008 -18.4122 0 0 0 0 0 0
157 2 C 15.999 1.6284 5.72789 -18.6394 0 0 0 0 0 0
158 1 C 1.008 2.44651 5.23005 -18.8435 0 0 0 0 0 0
159 1 C 1.008 1.9153 6.21875 -17.8485 0 0 0 0 0 0
160 2 C 15.999 2.20157 7.05751 -16.2867 0 0 0 0 0 0
161 1 C 1.008 1.23023 7.05324 -16.1613 0 0 0 0 0 0
162 1 C 1.008 2.47813 6.48408 -15.5396 0 0 0 0 0 0