ITEM: TIMESTEP
0
ITEM: NUMBER OF ATOMS
1748
ITEM: BOX BOUNDS pp pp pp
-1.0093999999999999e+01 1.0093999999999999e+01
-9.9900000000000002e+00 9.9900000000000002e+00
-3.4911999999999999e+01 1.8785000000000000e+01
ITEM: ATOMS id type xs ys zs
1162 2 0.415805 0.0658472 0.00124029
1448 3 0.0876466 0.5 0.0362833
1481 3 0.458765 0.427835 0.0362833
1493 3 0.211353 0.427835 0.0362833
1494 3 0.335059 0.35567 0.0362833
1495 3 0.211353 0.283504 0.0362833
1496 3 0.335059 0.5 0.0362833
1498 3 0.417529 0.5 0.0801321
1499 3 0.293823 0.427835 0.0801321
1511 3 0.0876466 0.211339 0.0362833
1512 3 0.0876466 0.35567 0.0362833
1513 3 0.0464112 0.427835 0.0801321
1514 3 0.170117 0.35567 0.0801321
1515 3 0.0464112 0.283504 0.0801321
1516 3 0.170117 0.5 0.0801321
1518 3 0.252588 0.5 0.123981
1519 3 0.128882 0.427835 0.123981
1531 3 0.00517589 0.35567 0.123981
1532 3 0.00517589 0.5 0.123981
1561 3 0.458765 0.283504 0.0362833
1563 3 0.458765 0.139174 0.0362833
1583 3 0.211353 0.139174 0.0362833
1584 3 0.335059 0.0670086 0.0362833
1585 3 0.335059 0.211339 0.0362833
1586 3 0.293823 0.283504 0.0801321
1587 3 0.417529 0.211339 0.0801321
1588 3 0.293823 0.139174 0.0801321
1589 3 0.417529 0.35567 0.0801321
1590 3 0.376294 0.427835 0.123981
1591 3 0.5 0.35567 0.123981
1592 3 0.376294 0.283504 0.123981
1606 3 0.0876466 0.0670086 0.0362833
1607 3 0.0464112 0.139174 0.0801321
1608 3 0.170117 0.0670086 0.0801321
1609 3 0.170117 0.211339 0.0801321
1610 3 0.128882 0.283504 0.123981
1611 3 0.252588 0.211339 0.123981
1612 3 0.128882 0.139174 0.123981
1613 3 0.252588 0.35567 0.123981
1626 3 0.00517589 0.0670086 0.123981
1627 3 0.00517589 0.211339 0.123981
1675 3 0.417529 0.0670086 0.0801321
1676 3 0.376294 0.139174 0.123981
1677 3 0.5 0.0670086 0.123981
1678 3 0.5 0.211339 0.123981
1691 3 0.252588 0.0670086 0.123981
1480 3 0.582471 0.5 0.0362833
1546 3 0.953589 0.427835 0.0362833
1547 3 0.706177 0.427835 0.0362833
1548 3 0.829883 0.35567 0.0362833
1549 3 0.706177 0.283504 0.0362833
1550 3 0.829883 0.5 0.0362833
1552 3 0.912353 0.5 0.0801321
1553 3 0.788647 0.427835 0.0801321
1562 3 0.582471 0.211339 0.0362833
1564 3 0.582471 0.35567 0.0362833
1565 3 0.541235 0.427835 0.0801321
1566 3 0.664941 0.35567 0.0801321
1567 3 0.541235 0.283504 0.0801321
1568 3 0.664941 0.5 0.0801321
1570 3 0.747412 0.5 0.123981
1571 3 0.623706 0.427835 0.123981
1593 3 0.5 0.5 0.123981
1640 3 0.953589 0.283504 0.0362833
1641 3 0.953589 0.139174 0.0362833
1642 3 0.706177 0.139174 0.0362833
1643 3 0.829883 0.0670086 0.0362833
1644 3 0.829883 0.211339 0.0362833
1645 3 0.788647 0.283504 0.0801321
1646 3 0.912353 0.211339 0.0801321
1647 3 0.788647 0.139174 0.0801321
1648 3 0.912353 0.35567 0.0801321
1649 3 0.871118 0.427835 0.123981
1650 3 0.994824 0.35567 0.123981
1651 3 0.871118 0.283504 0.123981
1652 3 0.994824 0.5 0.123981
1655 3 0.582471 0.0670086 0.0362833
1656 3 0.541235 0.139174 0.0801321
1657 3 0.664941 0.0670086 0.0801321
1658 3 0.664941 0.211339 0.0801321
1659 3 0.623706 0.283504 0.123981
1660 3 0.747412 0.211339 0.123981
1661 3 0.623706 0.139174 0.123981
1662 3 0.747412 0.35567 0.123981
1713 3 0.912353 0.0670086 0.0801321
1714 3 0.871118 0.139174 0.123981
1715 3 0.994824 0.0670086 0.123981
1716 3 0.994824 0.211339 0.123981
1719 3 0.747412 0.0670086 0.123981
1423 3 0.335059 0.932991 0.0362833
1424 3 0.211353 0.860826 0.0362833
1425 3 0.0876466 0.788661 0.0362833
1426 3 0.0876466 0.932991 0.0362833
1427 3 0.170117 0.932991 0.0801321
1428 3 0.0464112 0.860826 0.0801321
1429 3 0.00517589 0.932991 0.123981
1432 3 0.458765 0.860826 0.0362833
1434 3 0.458765 0.716496 0.0362833
1438 3 0.211353 0.716496 0.0362833
1439 3 0.335059 0.64433 0.0362833
1440 3 0.211353 0.572165 0.0362833
1441 3 0.335059 0.788661 0.0362833
1442 3 0.293823 0.860826 0.0801321
1443 3 0.417529 0.788661 0.0801321
1444 3 0.293823 0.716496 0.0801321
1445 3 0.417529 0.932991 0.0801321
1446 3 0.5 0.932991 0.123981
1447 3 0.376294 0.860826 0.123981
1449 3 0.0876466 0.64433 0.0362833
1450 3 0.0464112 0.716496 0.0801321
1451 3 0.170117 0.64433 0.0801321
1452 3 0.0464112 0.572165 0.0801321
1453 3 0.170117 0.788661 0.0801321
1454 3 0.128882 0.860826 0.123981
1455 3 0.252588 0.788661 0.123981
1456 3 0.128882 0.716496 0.123981
1457 3 0.252588 0.932991 0.123981
1460 3 0.00517589 0.64433 0.123981
1461 3 0.00517589 0.788661 0.123981
1479 3 0.458765 0.572165 0.0362833
1497 3 0.293823 0.572165 0.0801321
1500 3 0.417529 0.64433 0.0801321
1501 3 0.376294 0.716496 0.123981
1502 3 0.5 0.64433 0.123981
1503 3 0.376294 0.572165 0.123981
1504 3 0.5 0.788661 0.123981
1517 3 0.128882 0.572165 0.123981
1520 3 0.252588 0.64433 0.123981
1421 1 0.661419 0.918963 0.00369146
1430 3 0.829883 0.932991 0.0362833
1431 3 0.706177 0.860826 0.0362833
1433 3 0.582471 0.788661 0.0362833
1435 3 0.582471 0.932991 0.0362833
1436 3 0.664941 0.932991 0.0801321
1437 3 0.541235 0.860826 0.0801321
1467 3 0.953589 0.860826 0.0362833
1468 3 0.953589 0.716496 0.0362833
1469 3 0.706177 0.716496 0.0362833
1470 3 0.829883 0.64433 0.0362833
1471 3 0.706177 0.572165 0.0362833
1472 3 0.829883 0.788661 0.0362833
1473 3 0.788647 0.860826 0.0801321
1474 3 0.912353 0.788661 0.0801321
1475 3 0.788647 0.716496 0.0801321
1476 3 0.912353 0.932991 0.0801321
1477 3 0.994824 0.932991 0.123981
1478 3 0.871118 0.860826 0.123981
1482 3 0.582471 0.64433 0.0362833
1483 3 0.541235 0.716496 0.0801321
1484 3 0.664941 0.64433 0.0801321
1485 3 0.541235 0.572165 0.0801321
1486 3 0.664941 0.788661 0.0801321
1487 3 0.623706 0.860826 0.123981
1488 3 0.747412 0.788661 0.123981
1489 3 0.623706 0.716496 0.123981
1490 3 0.747412 0.932991 0.123981
1545 3 0.953589 0.572165 0.0362833
1551 3 0.788647 0.572165 0.0801321
1554 3 0.912353 0.64433 0.0801321
1555 3 0.871118 0.716496 0.123981
1556 3 0.994824 0.64433 0.123981
1557 3 0.871118 0.572165 0.123981
1558 3 0.994824 0.788661 0.123981
1569 3 0.623706 0.572165 0.123981
1572 3 0.747412 0.64433 0.123981
1533 3 0.0876466 0.5 0.16783
1596 3 0.458765 0.427835 0.16783
1614 3 0.211353 0.427835 0.16783
1615 3 0.335059 0.35567 0.16783
1616 3 0.211353 0.283504 0.16783
1617 3 0.335059 0.5 0.16783
1619 3 0.417529 0.5 0.211679
1620 3 0.293823 0.427835 0.211679
1628 3 0.0876466 0.211339 0.16783
1629 3 0.0876466 0.35567 0.16783
1630 3 0.0464112 0.427835 0.211679
1631 3 0.170117 0.35567 0.211679
1632 3 0.0464112 0.283504 0.211679
1633 3 0.170117 0.5 0.211679
1635 3 0.252588 0.5 0.255527
1636 3 0.128882 0.427835 0.255527
1638 3 0.00517589 0.35567 0.255527
1639 3 0.00517589 0.5 0.255527
1679 3 0.458765 0.283504 0.16783
1681 3 0.458765 0.139174 0.16783
1692 3 0.211353 0.139174 0.16783
1693 3 0.335059 0.0670086 0.16783
1694 3 0.335059 0.211339 0.16783
1695 3 0.293823 0.283504 0.211679
1696 3 0.417529 0.211339 0.211679
1697 3 0.293823 0.139174 0.211679
1698 3 0.417529 0.35567 0.211679
1699 3 0.376294 0.427835 0.255527
1701 3 0.376294 0.283504 0.255527
1703 3 0.0876466 0.0670086 0.16783
1704 3 0.0464112 0.139174 0.211679
1705 3 0.170117 0.0670086 0.211679
1706 3 0.170117 0.211339 0.211679
1707 3 0.128882 0.283504 0.255527
1708 3 0.252588 0.211339 0.255527
1709 3 0.128882 0.139174 0.255527
1710 3 0.252588 0.35567 0.255527
1711 3 0.00517589 0.0670086 0.255527
1712 3 0.00517589 0.211339 0.255527
1739 3 0.417529 0.0670086 0.211679
1740 3 0.376294 0.139174 0.255527
1743 3 0.252588 0.0670086 0.255527
1595 3 0.582471 0.5 0.16783
1654 3 0.953589 0.427835 0.16783
1663 3 0.706177 0.427835 0.16783
1664 3 0.829883 0.35567 0.16783
1665 3 0.706177 0.283504 0.16783
1666 3 0.829883 0.5 0.16783
1668 3 0.912353 0.5 0.211679
1669 3 0.788647 0.427835 0.211679
1680 3 0.582471 0.211339 0.16783
1682 3 0.582471 0.35567 0.16783
1683 3 0.541235 0.427835 0.211679
1684 3 0.664941 0.35567 0.211679
1685 3 0.541235 0.283504 0.211679
1686 3 0.664941 0.5 0.211679
1688 3 0.747412 0.5 0.255527
1689 3 0.623706 0.427835 0.255527
1700 3 0.5 0.35567 0.255527
1702 3 0.5 0.5 0.255527
1717 3 0.953589 0.283504 0.16783
1718 3 0.953589 0.139174 0.16783
1720 3 0.706177 0.139174 0.16783
1721 3 0.829883 0.0670086 0.16783
1722 3 0.829883 0.211339 0.16783
1723 3 0.788647 0.283504 0.211679
1724 3 0.912353 0.211339 0.211679
1725 3 0.788647 0.139174 0.211679
1726 3 0.912353 0.35567 0.211679
1727 3 0.871118 0.427835 0.255527
1728 3 0.994824 0.35567 0.255527
1729 3 0.871118 0.283504 0.255527
1730 3 0.994824 0.5 0.255527
1731 3 0.582471 0.0670086 0.16783
1732 3 0.541235 0.139174 0.211679
1733 3 0.664941 0.0670086 0.211679
1734 3 0.664941 0.211339 0.211679
1735 3 0.623706 0.283504 0.255527
1736 3 0.747412 0.211339 0.255527
1737 3 0.623706 0.139174 0.255527
1738 3 0.747412 0.35567 0.255527
1741 3 0.5 0.0670086 0.255527
1742 3 0.5 0.211339 0.255527
1744 3 0.912353 0.0670086 0.211679
1745 3 0.871118 0.139174 0.255527
1746 3 0.994824 0.0670086 0.255527
1747 3 0.994824 0.211339 0.255527
1748 3 0.747412 0.0670086 0.255527
1458 3 0.335059 0.932991 0.16783
1459 3 0.211353 0.860826 0.16783
1462 3 0.0876466 0.788661 0.16783
1463 3 0.0876466 0.932991 0.16783
1464 3 0.170117 0.932991 0.211679
1465 3 0.0464112 0.860826 0.211679
1466 3 0.00517589 0.932991 0.255527
1505 3 0.458765 0.860826 0.16783
1507 3 0.458765 0.716496 0.16783
1521 3 0.211353 0.716496 0.16783
1522 3 0.335059 0.64433 0.16783
1523 3 0.211353 0.572165 0.16783
1524 3 0.335059 0.788661 0.16783
1525 3 0.293823 0.860826 0.211679
1526 3 0.417529 0.788661 0.211679
1527 3 0.293823 0.716496 0.211679
1528 3 0.417529 0.932991 0.211679
1530 3 0.376294 0.860826 0.255527
1534 3 0.0876466 0.64433 0.16783
1535 3 0.0464112 0.716496 0.211679
1536 3 0.170117 0.64433 0.211679
1537 3 0.0464112 0.572165 0.211679
1538 3 0.170117 0.788661 0.211679
1539 3 0.128882 0.860826 0.255527
1540 3 0.252588 0.788661 0.255527
1541 3 0.128882 0.716496 0.255527
1542 3 0.252588 0.932991 0.255527
1543 3 0.00517589 0.64433 0.255527
1544 3 0.00517589 0.788661 0.255527
1594 3 0.458765 0.572165 0.16783
1618 3 0.293823 0.572165 0.211679
1621 3 0.417529 0.64433 0.211679
1622 3 0.376294 0.716496 0.255527
1624 3 0.376294 0.572165 0.255527
1634 3 0.128882 0.572165 0.255527
1637 3 0.252588 0.64433 0.255527
1491 3 0.829883 0.932991 0.16783
1492 3 0.706177 0.860826 0.16783
1506 3 0.582471 0.788661 0.16783
1508 3 0.582471 0.932991 0.16783
1509 3 0.664941 0.932991 0.211679
1510 3 0.541235 0.860826 0.211679
1529 3 0.5 0.932991 0.255527
1559 3 0.953589 0.860826 0.16783
1560 3 0.953589 0.716496 0.16783
1573 3 0.706177 0.716496 0.16783
1574 3 0.829883 0.64433 0.16783
1575 3 0.706177 0.572165 0.16783
1576 3 0.829883 0.788661 0.16783
1577 3 0.788647 0.860826 0.211679
1578 3 0.912353 0.788661 0.211679
1579 3 0.788647 0.716496 0.211679
1580 3 0.912353 0.932991 0.211679
1581 3 0.994824 0.932991 0.255527
1582 3 0.871118 0.860826 0.255527
1597 3 0.582471 0.64433 0.16783
1598 3 0.541235 0.716496 0.211679
1599 3 0.664941 0.64433 0.211679
1600 3 0.541235 0.572165 0.211679
1601 3 0.664941 0.788661 0.211679
1602 3 0.623706 0.860826 0.255527
1603 3 0.747412 0.788661 0.255527
1604 3 0.623706 0.716496 0.255527
1605 3 0.747412 0.932991 0.255527
1623 3 0.5 0.64433 0.255527
1625 3 0.5 0.788661 0.255527
1653 3 0.953589 0.572165 0.16783
1667 3 0.788647 0.572165 0.211679
1670 3 0.912353 0.64433 0.211679
1671 3 0.871118 0.716496 0.255527
1672 3 0.994824 0.64433 0.255527
1673 3 0.871118 0.572165 0.255527
1674 3 0.994824 0.788661 0.255527
1687 3 0.623706 0.572165 0.255527
1690 3 0.747412 0.64433 0.255527
16 2 0.0618949 0.349433 0.403326
17 1 0.0589727 0.390688 0.412665
18 1 0.0185168 0.329476 0.406878
89 1 0.493472 0.496613 0.37577
104 1 0.274351 0.480948 0.414879
133 2 0.246273 0.457989 0.383588
134 1 0.215308 0.489166 0.375514
135 1 0.224267 0.41564 0.381159
182 1 0.477247 0.164192 0.337888
183 1 0.485028 0.124107 0.314686
187 2 0.297711 0.332941 0.42666
188 1 0.249781 0.324923 0.425096
189 1 0.310033 0.322854 0.409343
202 2 0.343791 0.183306 0.302471
203 1 0.329458 0.181277 0.319974
204 1 0.315377 0.219821 0.296702
208 2 0.0575603 0.216644 0.354493
209 1 0.0760555 0.243155 0.340711
210 1 0.0330594 0.251351 0.36304
217 2 0.175357 0.284766 0.417101
218 1 0.135809 0.300979 0.408361
219 1 0.186579 0.243924 0.408182
220 2 0.315989 0.294198 0.378547
221 1 0.364101 0.289677 0.380069
222 1 0.310925 0.313881 0.361836
226 2 0.303482 0.343789 0.331993
227 1 0.282271 0.326897 0.316856
228 1 0.340606 0.368483 0.324663
238 2 0.250301 0.155572 0.410851
239 1 0.212999 0.125549 0.414419
240 1 0.287022 0.12375 0.410601
289 2 0.0920627 0.446257 0.32993
290 1 0.120271 0.47696 0.33955
291 1 0.0495017 0.453128 0.337921
337 2 0.444113 0.268897 0.393884
338 1 0.48338 0.297161 0.396161
339 1 0.437831 0.25357 0.411137
343 2 0.485327 0.111273 0.408902
344 1 0.482414 0.148078 0.420735
349 2 0.299895 0.172921 0.350226
350 1 0.289264 0.206236 0.362876
351 1 0.343168 0.157858 0.356265
361 2 0.0874149 0.310242 0.320069
362 1 0.0958228 0.356341 0.325316
363 1 0.0714075 0.316268 0.303372
407 1 0.306784 0.478938 0.357032
408 1 0.353398 0.467223 0.335008
412 2 0.403624 0.418828 0.313715
413 1 0.400893 0.431346 0.296028
414 1 0.451635 0.415546 0.315639
535 2 0.060361 0.156091 0.401289
536 1 0.0139938 0.144616 0.397502
537 1 0.0726807 0.173709 0.384881
592 2 0.147129 0.0785907 0.42611
593 1 0.112235 0.101243 0.416638
594 1 0.134654 0.0312635 0.424097
595 2 0.0875156 0.0792552 0.343338
596 1 0.126461 0.0986841 0.335159
597 1 0.0634346 0.119909 0.347265
598 2 0.359334 0.0765458 0.423809
599 1 0.402235 0.0847729 0.415885
610 2 0.194232 0.137138 0.320813
611 1 0.217007 0.106469 0.309521
612 1 0.229008 0.146753 0.333197
613 2 0.428459 0.1581 0.365299
614 1 0.445343 0.127088 0.377807
615 1 0.435148 0.200518 0.374221
3 1 0.565203 0.491839 0.411324
37 2 0.673241 0.227877 0.417906
39 1 0.707883 0.248805 0.407902
88 2 0.527569 0.464023 0.380491
90 1 0.558352 0.467743 0.366636
91 2 0.5395 0.397809 0.317561
92 1 0.574972 0.413231 0.328639
93 1 0.536768 0.351093 0.321962
97 2 0.705137 0.476685 0.391385
98 1 0.67045 0.488599 0.403535
99 1 0.735354 0.451696 0.402229
118 2 0.640509 0.438314 0.349079
119 1 0.66554 0.456031 0.363393
120 1 0.667272 0.457151 0.335301
130 2 0.81653 0.0678912 0.343745
131 1 0.78374 0.08008 0.356474
132 1 0.849287 0.103087 0.344813
178 2 0.709108 0.490439 0.311079
179 1 0.708323 0.478364 0.293518
181 2 0.504748 0.162719 0.322856
190 2 0.556023 0.342434 0.401574
191 1 0.54416 0.387021 0.395199
192 1 0.589667 0.328363 0.389591
250 2 0.633896 0.190625 0.336621
251 1 0.589801 0.185033 0.329194
252 1 0.634549 0.237295 0.341825
256 2 0.650899 0.307791 0.36497
257 1 0.695303 0.301502 0.371812
258 1 0.653524 0.353526 0.358471
274 2 0.875815 0.328432 0.356845
275 1 0.855444 0.318838 0.34052
276 1 0.899698 0.369488 0.352398
331 2 0.598118 0.153732 0.385403
332 1 0.608169 0.168881 0.368448
333 1 0.620965 0.187456 0.395493
345 1 0.528015 0.120883 0.400704
475 2 0.899894 0.460067 0.41504
476 1 0.854947 0.445164 0.419596
484 2 0.926784 0.450415 0.341284
485 1 0.900224 0.46006 0.326805
486 1 0.913306 0.486328 0.35266
487 2 0.818286 0.308884 0.311429
488 1 0.805186 0.329457 0.295798
489 1 0.809856 0.261911 0.30744
490 2 0.781176 0.401171 0.423054
491 1 0.778545 0.355702 0.416664
502 2 0.78809 0.174895 0.302463
503 1 0.81545 0.151805 0.31455
504 1 0.744018 0.166124 0.308742
505 2 0.775752 0.282174 0.389437
506 1 0.79466 0.237702 0.392974
507 1 0.80998 0.300167 0.378355
520 2 0.811312 0.153362 0.401615
521 1 0.822432 0.12695 0.416469
522 1 0.774463 0.126653 0.394996
532 2 0.909744 0.164404 0.333813
533 1 0.935017 0.134441 0.322606
534 1 0.924641 0.207972 0.328037
604 2 0.715117 0.0787833 0.37992
605 1 0.670207 0.0958747 0.380184
606 1 0.707276 0.0310872 0.375553
634 2 0.925729 0.323751 0.404927
635 1 0.91731 0.371057 0.407884
636 1 0.910915 0.319075 0.387684
661 2 0.93742 0.14005 0.382801
662 1 0.893406 0.144497 0.389789
663 1 0.929675 0.149784 0.365234
67 2 0.0724476 0.637334 0.370922
68 1 0.061645 0.666189 0.357032
69 1 0.0826556 0.669852 0.383951
153 1 0.4828 0.930089 0.393962
154 2 0.196399 0.825549 0.423773
156 1 0.164178 0.792325 0.417988
244 2 0.438287 0.561605 0.366058
245 1 0.399818 0.545565 0.356614
246 1 0.416319 0.573842 0.381881
287 1 0.33516 0.747467 0.421065
288 1 0.275681 0.704705 0.425892
292 2 0.370634 0.590965 0.407752
293 1 0.359196 0.633949 0.415252
294 1 0.339788 0.561229 0.416365
298 2 0.322575 0.830862 0.404276
299 1 0.276113 0.835234 0.409513
300 1 0.342305 0.869225 0.413109
322 2 0.317701 0.69556 0.350531
323 1 0.356548 0.671192 0.355537
324 1 0.333099 0.742079 0.351304
325 2 0.160019 0.54016 0.357482
326 1 0.12619 0.568899 0.36524
327 1 0.183105 0.574766 0.34791
334 2 0.484257 0.757016 0.350406
335 1 0.440199 0.777704 0.351836
346 2 0.367656 0.824067 0.35585
347 1 0.36605 0.869352 0.348862
348 1 0.35029 0.831155 0.372726
358 2 0.204332 0.649188 0.329782
359 1 0.24103 0.671374 0.338644
360 1 0.230061 0.623996 0.31743
370 2 0.0945147 0.74568 0.404741
371 1 0.0678091 0.759696 0.418921
372 1 0.0761885 0.772321 0.390903
380 1 0.492521 0.756093 0.308682
391 2 0.272466 0.560922 0.301724
392 1 0.29016 0.539856 0.316822
393 1 0.314299 0.568559 0.29269
406 2 0.329696 0.503031 0.343753
454 2 0.394045 0.951288 0.334512
455 1 0.439034 0.934675 0.332031
456 1 0.395171 0.992128 0.324663
457 2 0.0800455 0.677213 0.312322
458 1 0.123395 0.669483 0.320106
459 1 0.0718499 0.634329 0.30421
607 2 0.0525543 0.814644 0.363184
608 1 0.0147209 0.815515 0.352116
609 1 0.072863 0.857656 0.359022
628 2 0.161622 0.874364 0.311722
629 1 0.138691 0.901246 0.324401
630 1 0.167503 0.83247 0.320301
694 2 0.119488 0.941435 0.427634
695 1 0.0751812 0.928094 0.423297
696 1 0.146027 0.902378 0.422621
697 2 0.0801133 0.941809 0.344558
698 1 0.0901888 0.990108 0.345255
699 1 0.0324905 0.943654 0.343323
701 1 0.358618 0.984502 0.425429
1 2 0.601719 0.509907 0.421005
2 1 0.594329 0.557998 0.418573
52 2 0.582966 0.635191 0.402506
53 1 0.573456 0.637025 0.384738
54 1 0.557518 0.67389 0.40852
79 2 0.655678 0.788176 0.426346
80 1 0.678603 0.744847 0.424325
81 1 0.69404 0.818283 0.425558
82 2 0.719091 0.672148 0.417851
83 1 0.686181 0.643509 0.410211
124 2 0.526572 0.75638 0.415762
125 1 0.569614 0.771097 0.422172
126 1 0.503035 0.798006 0.413964
136 2 0.89107 0.735076 0.324825
137 1 0.911795 0.779113 0.325869
138 1 0.921603 0.711376 0.314257
151 2 0.511978 0.899527 0.38538
152 1 0.504332 0.91083 0.367932
157 2 0.650883 0.862225 0.329841
158 1 0.677038 0.826992 0.32134
159 1 0.645019 0.840914 0.34622
160 2 0.626804 0.831909 0.378011
161 1 0.586063 0.854656 0.38323
162 1 0.638482 0.807769 0.393249
180 1 0.723766 0.536375 0.31043
262 2 0.545336 0.636436 0.352124
263 1 0.523814 0.680735 0.3518
264 1 0.506961 0.608132 0.356365
280 2 0.821219 0.747817 0.369085
281 1 0.793801 0.709659 0.373199
282 1 0.840919 0.734853 0.35314
304 2 0.688617 0.652677 0.333104
305 1 0.715037 0.629769 0.345954
306 1 0.644124 0.646247 0.339448
310 2 0.94586 0.864248 0.327561
311 1 0.951366 0.885675 0.311463
312 1 0.905861 0.887242 0.333567
316 2 0.758645 0.586024 0.367624
317 1 0.73763 0.549188 0.37667
318 1 0.805282 0.574246 0.369656
336 1 0.5112 0.792822 0.357095
379 2 0.506043 0.792119 0.297604
381 1 0.545638 0.77257 0.289924
385 2 0.72058 0.764578 0.307066
386 1 0.717402 0.722624 0.316664
387 1 0.763618 0.760447 0.299057
397 2 0.558368 0.639371 0.30058
398 1 0.552898 0.632862 0.318443
399 1 0.556305 0.592989 0.29457
472 2 0.889015 0.546598 0.375397
473 1 0.916965 0.583624 0.380229
474 1 0.893436 0.516527 0.389811
538 2 0.754968 0.87888 0.420818
539 1 0.791089 0.873812 0.40871
616 2 0.517358 0.894792 0.33166
617 1 0.565402 0.893329 0.329893
618 1 0.505497 0.860833 0.31919
619 2 0.857272 0.869704 0.387599
620 1 0.849797 0.822709 0.382833
621 1 0.855085 0.891234 0.371267
649 2 0.917484 0.948598 0.423258
650 1 0.901001 0.924963 0.408549
670 2 0.83393 0.932605 0.342659
671 1 0.787018 0.925911 0.345973
672 1 0.833943 0.98223 0.341997
706 2 0.700011 0.950332 0.365437
707 1 0.676669 0.932791 0.351158
708 1 0.690878 0.915669 0.377707
7 2 0.135829 0.447452 0.520446
8 1 0.147869 0.409122 0.530865
9 1 0.179129 0.459587 0.513894
19 2 0.0738187 0.454555 0.448938
20 1 0.0943404 0.412351 0.454218
21 1 0.11101 0.485111 0.450088
34 2 0.302498 0.216124 0.45239
35 1 0.303096 0.260408 0.444622
36 1 0.280229 0.190932 0.439103
40 2 0.128925 0.336952 0.46469
41 1 0.162491 0.308751 0.472642
42 1 0.122232 0.312135 0.449247
43 2 0.357156 0.412901 0.461194
44 1 0.401458 0.396041 0.465426
45 1 0.341731 0.378459 0.449507
49 2 0.230822 0.160914 0.527607
50 1 0.217354 0.184735 0.512474
51 1 0.192516 0.169792 0.538357
61 2 0.212956 0.250125 0.489102
62 1 0.242612 0.278521 0.498984
63 1 0.24364 0.2322 0.476522
76 2 0.402619 0.0641322 0.472463
77 1 0.408325 0.0164992 0.475923
78 1 0.364924 0.0733239 0.483377
105 1 0.313353 0.468145 0.438844
109 2 0.278084 0.456241 0.499922
110 1 0.30966 0.442519 0.486845
111 1 0.305432 0.488564 0.509249
169 2 0.287704 0.0542301 0.501701
170 1 0.253244 0.0621979 0.489307
171 1 0.275394 0.0888339 0.513686
172 2 0.499545 0.0862376 0.569717
174 1 0.451794 0.0806476 0.568546
184 2 0.282476 0.33127 0.521287
185 1 0.246487 0.332464 0.533578
186 1 0.280922 0.377143 0.514861
199 2 0.166993 0.332011 0.548546
200 1 0.144299 0.35659 0.561999
201 1 0.152679 0.286383 0.551735
205 2 0.035484 0.23823 0.4423
206 1 0.0512812 0.217152 0.457779
207 1 0.0544229 0.209801 0.429338
214 2 0.437142 0.215816 0.44048
215 1 0.393118 0.213664 0.448173
216 1 0.465325 0.199487 0.454035
235 2 0.474868 0.356011 0.477326
237 1 0.457592 0.327366 0.490785
241 2 0.414329 0.294199 0.516992
242 1 0.371235 0.315325 0.51982
243 1 0.439388 0.30736 0.531874
313 2 0.128113 0.189582 0.559285
314 1 0.0870796 0.206815 0.566361
315 1 0.13757 0.154445 0.571416
340 2 0.496049 0.30679 0.557761
367 2 0.174219 0.0946268 0.47509
368 1 0.168238 0.0978786 0.456903
369 1 0.171306 0.0457716 0.476641
411 1 0.352653 0.408445 0.566526
421 2 0.350566 0.197542 0.547587
422 1 0.376282 0.223178 0.535456
423 1 0.307905 0.192616 0.539021
424 2 0.409402 0.442359 0.546662
425 1 0.453437 0.457646 0.550647
426 1 0.390424 0.481738 0.538422
436 2 0.363842 0.0674634 0.559854
437 1 0.365576 0.114501 0.554446
438 1 0.318419 0.0648933 0.56517
494 1 0.0290483 0.487309 0.477166
495 1 0.0593797 0.492869 0.50252
523 2 0.0808007 0.188288 0.485994
524 1 0.11188 0.151127 0.483768
525 1 0.108667 0.22115 0.493931
526 2 0.0409869 0.348122 0.503658
527 1 0.0706901 0.341773 0.489441
528 1 0.0635189 0.383806 0.512469
541 2 0.0684542 0.0473514 0.542025
542 1 0.0216925 0.041088 0.537485
543 1 0.0762964 0.0917884 0.535705
584 1 0.482569 0.110767 0.472652
600 1 0.371482 0.0827652 0.441318
4 2 0.540164 0.470928 0.496016
5 1 0.554118 0.447156 0.511042
6 1 0.517635 0.434834 0.48706
28 2 0.887072 0.166255 0.512421
29 1 0.895286 0.193686 0.527291
30 1 0.902218 0.19658 0.499499
31 2 0.621042 0.304929 0.499897
32 1 0.638223 0.260033 0.503152
33 1 0.609399 0.301315 0.482308
38 1 0.698548 0.218636 0.433323
46 2 0.900037 0.245383 0.55379
47 1 0.862312 0.275541 0.551415
58 2 0.739602 0.212582 0.460683
59 1 0.7453 0.170346 0.469557
60 1 0.755859 0.24395 0.473308
73 2 0.761892 0.117586 0.530588
74 1 0.723079 0.13324 0.521446
75 1 0.797394 0.131456 0.519363
94 2 0.873261 0.442422 0.530146
95 1 0.841666 0.478751 0.526852
96 1 0.897025 0.439904 0.514493
102 1 0.651379 0.394847 0.559069
173 1 0.514373 0.0402569 0.566975
196 2 0.597464 0.310096 0.449339
197 1 0.575886 0.331189 0.43498
198 1 0.620104 0.274038 0.440456
211 2 0.584253 0.39201 0.535738
212 1 0.600675 0.360325 0.523023
213 1 0.549323 0.364617 0.543367
223 2 0.645007 0.169124 0.506712
224 1 0.611736 0.173324 0.51998
225 1 0.618752 0.150267 0.493358
236 1 0.507268 0.326995 0.469498
285 1 0.691661 0.468983 0.480688
328 2 0.563234 0.188153 0.547013
329 1 0.601743 0.198963 0.557369
330 1 0.542393 0.151058 0.556291
342 1 0.516028 0.262361 0.555602
355 2 0.710666 0.387363 0.466185
356 1 0.668654 0.364691 0.463212
357 1 0.732091 0.35672 0.478004
477 1 0.918714 0.471633 0.43098
492 1 0.756687 0.397773 0.438883
508 2 0.786102 0.300168 0.495442
509 1 0.83459 0.299711 0.493264
510 1 0.783302 0.303816 0.513569
511 2 0.797321 0.33532 0.54537
512 1 0.758285 0.354348 0.553351
513 1 0.82281 0.375321 0.540878
556 2 0.838956 0.0771251 0.568997
557 1 0.806897 0.0878742 0.55566
583 2 0.518301 0.143583 0.471015
585 1 0.553715 0.117886 0.463119
586 2 0.75208 0.078815 0.474121
587 1 0.784573 0.0762029 0.460491
588 1 0.709626 0.0790353 0.465588
589 2 0.849082 0.0606334 0.439498
590 1 0.87687 0.0241614 0.43297
591 1 0.882019 0.0963727 0.442058
601 2 0.629725 0.0863093 0.449408
602 1 0.637043 0.104313 0.432946
603 1 0.633325 0.0375797 0.446419
643 2 0.913262 0.182077 0.439867
644 1 0.957579 0.201046 0.441669
645 1 0.89352 0.214586 0.428832
646 2 0.962149 0.442263 0.568681
648 1 0.932946 0.429177 0.554952
658 2 0.920236 0.299814 0.489046
659 1 0.938586 0.30087 0.472432
660 1 0.959373 0.313825 0.498669
664 2 0.934808 0.0472916 0.53149
665 1 0.907282 0.0571083 0.545903
666 1 0.920262 0.0833945 0.520353
13 2 0.210547 0.658599 0.485536
14 1 0.199741 0.613696 0.479321
15 1 0.258879 0.655353 0.486399
25 2 0.461321 0.589364 0.496579
26 1 0.483286 0.547859 0.491588
27 1 0.496227 0.607261 0.507325
55 2 0.352841 0.550363 0.524042
56 1 0.329164 0.588631 0.531279
57 1 0.387763 0.572697 0.514433
64 2 0.283018 0.655526 0.545877
65 1 0.280271 0.703872 0.543248
66 1 0.237548 0.647167 0.551176
103 2 0.285449 0.501989 0.430875
106 2 0.349853 0.661786 0.478568
107 1 0.34991 0.669201 0.460567
108 1 0.390796 0.636136 0.481058
139 2 0.089779 0.561094 0.551146
140 1 0.0418093 0.567465 0.549971
141 1 0.0966543 0.519469 0.542189
142 2 0.0796274 0.709008 0.493419
143 1 0.120119 0.683715 0.490252
144 1 0.0889091 0.725468 0.510266
155 1 0.201887 0.813704 0.441376
166 2 0.159064 0.663031 0.569535
168 1 0.132647 0.626269 0.562188
259 2 0.196218 0.528584 0.467836
260 1 0.225836 0.524435 0.453382
261 1 0.219843 0.500641 0.479802
286 2 0.322495 0.705927 0.429513
295 2 0.408632 0.793043 0.538333
296 1 0.423469 0.837773 0.542904
297 1 0.439747 0.764832 0.547477
319 2 0.114901 0.768584 0.537989
320 1 0.132237 0.731955 0.548208
321 1 0.113308 0.80429 0.550068
460 2 0.0568849 0.794424 0.453057
461 1 0.0623706 0.755133 0.463766
462 1 0.0730914 0.828557 0.464614
493 2 0.0189513 0.504612 0.493754
547 2 0.276594 0.793506 0.549692
548 1 0.26395 0.835056 0.541369
549 1 0.324566 0.794023 0.546793
559 2 0.143927 0.937507 0.553695
560 1 0.117026 0.975586 0.547847
561 1 0.132806 0.936211 0.571151
562 2 0.260319 0.922716 0.5287
563 1 0.218047 0.927426 0.537722
564 1 0.253063 0.954288 0.515219
566 1 0.46949 0.914407 0.503739
574 2 0.11852 0.85582 0.494007
575 1 0.111615 0.834061 0.510024
576 1 0.15737 0.831241 0.487877
577 2 0.223384 0.790527 0.473059
578 1 0.218364 0.743221 0.477595
579 1 0.268453 0.799515 0.478966
580 2 0.354294 0.796503 0.491431
581 1 0.355856 0.749503 0.486178
582 1 0.374932 0.792658 0.507906
667 2 0.387897 0.930005 0.484787
668 1 0.379604 0.881671 0.483637
669 1 0.348586 0.944058 0.493919
675 1 0.483815 0.929758 0.569591
676 2 0.182453 0.961825 0.473525
677 1 0.168539 0.954251 0.456272
678 1 0.157369 0.926742 0.482028
679 2 0.380147 0.930503 0.553946
680 1 0.381243 0.979483 0.554422
681 1 0.337225 0.923517 0.545826
700 2 0.369414 0.937833 0.42916
702 1 0.37953 0.939311 0.446796
10 2 0.734512 0.615682 0.463473
11 1 0.709569 0.580448 0.471831
12 1 0.742719 0.647377 0.476989
22 2 0.587016 0.859642 0.468241
23 1 0.600051 0.814366 0.463911
24 1 0.561199 0.853436 0.483284
70 2 0.749208 0.711005 0.501188
71 1 0.7008 0.714744 0.503219
72 1 0.761282 0.757401 0.497492
84 1 0.728058 0.648622 0.433598
85 2 0.803266 0.608068 0.567677
86 1 0.796595 0.582333 0.552295
87 1 0.808037 0.65331 0.560658
112 2 0.618885 0.721478 0.510461
113 1 0.61232 0.75757 0.522473
114 1 0.595737 0.683872 0.518326
247 2 0.785984 0.545148 0.521983
248 1 0.814976 0.570981 0.510929
249 1 0.747516 0.53624 0.511325
283 2 0.6781 0.508802 0.490058
284 1 0.630038 0.503246 0.489675
301 2 0.563831 0.607014 0.530772
302 1 0.54424 0.596503 0.547071
303 1 0.597172 0.572472 0.52951
308 1 0.675292 0.79013 0.569388
309 1 0.710737 0.852421 0.560439
364 2 0.794385 0.841899 0.501344
365 1 0.791709 0.871939 0.486837
366 1 0.842479 0.840504 0.503788
463 2 0.927967 0.849918 0.512429
464 1 0.924832 0.846906 0.530591
465 1 0.949067 0.892922 0.510142
466 2 0.898165 0.829527 0.562263
467 1 0.871062 0.791816 0.556574
478 2 0.90563 0.595004 0.502713
479 1 0.943613 0.573116 0.49501
480 1 0.910285 0.641112 0.496552
481 2 0.806589 0.733111 0.547655
482 1 0.770654 0.759829 0.554575
483 1 0.791277 0.725007 0.530542
540 1 0.780212 0.892734 0.435493
565 2 0.505081 0.898074 0.514342
567 1 0.503587 0.929364 0.528322
568 2 0.613307 0.840733 0.536116
569 1 0.57253 0.858616 0.528812
570 1 0.643646 0.877696 0.533591
571 2 0.733127 0.918954 0.536796
572 1 0.731824 0.962103 0.528577
573 1 0.754591 0.890995 0.523966
637 2 0.953642 0.574106 0.55023
638 1 0.931964 0.581822 0.534123
639 1 0.947488 0.52611 0.552698
640 2 0.942125 0.724721 0.489879
641 1 0.989655 0.716512 0.491164
642 1 0.938045 0.768125 0.498248
651 1 0.921405 0.910562 0.434657
652 2 0.922976 0.832429 0.449973
653 1 0.901444 0.794626 0.457844
654 1 0.969548 0.819023 0.451013
673 2 0.522171 0.951648 0.562352
689 1 0.789862 0.930167 0.563109
690 1 0.855918 0.90365 0.570968