LAMMPS data file via write_data, version 29 Sep 2021, timestep = 40000

1748 atoms
3 atom types
948 bonds
1 bond types
474 angles
1 angle types

-10.094 10.094 xlo xhi
-9.99 9.99 ylo yhi
-32.622344019771305 16.495344019530414 zlo zhi

Masses

1 1.008
2 15.999
3 197

PairIJ Coeffs # lj/charmmfsw/coul/long

1 1 0.046 0.400014 0.046 0.400014
1 2 0.0836457 1.77529 0.0836457 1.77529
1 3 0.493295 1.51451 0.493295 1.51451
2 2 0.1521 3.15057 0.1521 3.15057
2 3 0.897 2.88979 0.897 2.88979
3 3 5.29 2.629 5.29 2.629

Bond Coeffs # harmonic

1 450 0.9572

Angle Coeffs # charmm

1 55 104.52 0 0

Atoms # full

1498 0 3 0 -1.664918178169728 -1.7763568394002505e-15 -30.037692105218568 0 0 0
1499 0 3 0 -4.162295445424315 -1.44186143751749 -30.037692105218568 0 0 0
1513 0 3 0 -9.157049979933495 -1.44186143751749 -30.037692105218568 0 0 0
1514 0 3 0 -6.659672712678905 -2.8837228750349784 -30.037692105218568 0 0 0
1515 0 3 0 -9.157049979933497 -4.325584312552467 -30.037692105218568 0 0 0
1516 0 3 0 -6.659672712678903 -1.7763568394002505e-15 -30.037692105218568 0 0 0
1518 0 3 0 -4.994754534509179 -1.7763568394002505e-15 -27.883939644558662 0 0 0
1519 0 3 0 -7.492131801763769 -1.44186143751749 -27.883939644558662 0 0 0
1531 0 3 0 -9.989509069018359 -2.8837228750349784 -27.883939644558662 0 0 0
1532 0 3 0 -9.989509069018357 -1.7763568394002505e-15 -27.883939644558662 0 0 0
1586 0 3 0 -4.162295445424315 -4.325584312552467 -30.037692105218568 0 0 0
1587 0 3 0 -1.664918178169728 -5.767445750069957 -30.037692105218568 0 0 0
1588 0 3 0 -4.162295445424316 -7.209307187587445 -30.037692105218568 0 0 0
1589 0 3 0 -1.6649181781697262 -2.8837228750349784 -30.037692105218568 0 0 0
1590 0 3 0 -2.4973772672545884 -1.44186143751749 -27.883939644558662 0 0 0
1591 0 3 0 -1.7763568394002505e-15 -2.8837228750349784 -27.883939644558662 0 0 0
1592 0 3 0 -2.4973772672545884 -4.325584312552467 -27.883939644558662 0 0 0
1607 0 3 0 -9.157049979933495 -7.209307187587443 -30.037692105218568 0 0 0
1608 0 3 0 -6.659672712678905 -8.651168625104933 -30.037692105218568 0 0 0
1609 0 3 0 -6.659672712678905 -5.767445750069955 -30.037692105218568 0 0 0
1610 0 3 0 -7.492131801763769 -4.325584312552467 -27.883939644558662 0 0 0
1611 0 3 0 -4.994754534509179 -5.767445750069957 -27.883939644558662 0 0 0
1612 0 3 0 -7.492131801763771 -7.209307187587445 -27.883939644558662 0 0 0
1613 0 3 0 -4.994754534509177 -2.8837228750349784 -27.883939644558662 0 0 0
1626 0 3 0 -9.989509069018359 -8.651168625104933 -27.883939644558662 0 0 0
1627 0 3 0 -9.989509069018359 -5.767445750069955 -27.883939644558662 0 0 0
1675 0 3 0 -1.6649181781697298 -8.651168625104933 -30.037692105218568 0 0 0
1676 0 3 0 -2.4973772672545893 -7.209307187587445 -27.883939644558662 0 0 0
1677 0 3 0 -1.7763568394002505e-15 -8.651168625104933 -27.883939644558662 0 0 0
1678 0 3 0 -1.7763568394002505e-15 -5.767445750069955 -27.883939644558662 0 0 0
1691 0 3 0 -4.9947545345091795 -8.651168625104933 -27.883939644558662 0 0 0
1533 0 3 0 -8.324590890848633 -1.7763568394002505e-15 -25.730187183899435 0 0 0
1596 0 3 0 -0.8324590890848622 -1.44186143751749 -25.730187183899435 0 0 0
1614 0 3 0 -5.827213623594043 -1.44186143751749 -25.730187183899435 0 0 0
1615 0 3 0 -3.3298363563394524 -2.8837228750349784 -25.730187183899435 0 0 0
1616 0 3 0 -5.827213623594043 -4.325584312552467 -25.730187183899435 0 0 0
1617 0 3 0 -3.3298363563394506 -1.7763568394002505e-15 -25.730187183899435 0 0 0
1628 0 3 0 -8.324590890848633 -5.767445750069957 -25.730187183899435 0 0 0
1629 0 3 0 -8.324590890848631 -2.8837228750349784 -25.730187183899435 0 0 0
1679 0 3 0 -0.8324590890848622 -4.325584312552467 -25.730187183899435 0 0 0
1681 0 3 0 -0.8324590890848622 -7.209307187587444 -25.730187183899435 0 0 0
1692 0 3 0 -5.8272136235940435 -7.209307187587445 -25.730187183899435 0 0 0
1693 0 3 0 -3.3298363563394515 -8.651168625104933 -25.730187183899435 0 0 0
1694 0 3 0 -3.3298363563394515 -5.767445750069955 -25.730187183899435 0 0 0
1703 0 3 0 -8.324590890848633 -8.651168625104933 -25.730187183899435 0 0 0
1448 0 3 0 -8.324590890848631 -1.7763568394002505e-15 -32.19144456587688 0 0 0
1481 0 3 0 -0.8324590890848622 -1.44186143751749 -32.19144456587688 0 0 0
1493 0 3 0 -5.827213623594041 -1.44186143751749 -32.19144456587688 0 0 0
1494 0 3 0 -3.3298363563394533 -2.8837228750349784 -32.19144456587688 0 0 0
1495 0 3 0 -5.827213623594043 -4.325584312552467 -32.19144456587688 0 0 0
1496 0 3 0 -3.3298363563394524 -1.7763568394002505e-15 -32.19144456587688 0 0 0
1511 0 3 0 -8.324590890848631 -5.767445750069955 -32.19144456587688 0 0 0
1512 0 3 0 -8.324590890848631 -2.8837228750349784 -32.19144456587688 0 0 0
1561 0 3 0 -0.8324590890848622 -4.325584312552467 -32.19144456587688 0 0 0
1563 0 3 0 -0.832459089084864 -7.209307187587445 -32.19144456587688 0 0 0
1583 0 3 0 -5.827213623594041 -7.209307187587443 -32.19144456587688 0 0 0
1584 0 3 0 -3.3298363563394533 -8.651168625104933 -32.19144456587688 0 0 0
1585 0 3 0 -3.3298363563394533 -5.767445750069955 -32.19144456587688 0 0 0
1606 0 3 0 -8.324590890848631 -8.651168625104932 -32.19144456587688 0 0 0
1552 0 3 0 8.324590890848635 -1.7763568394002505e-15 -30.037692105218568 0 0 0
1553 0 3 0 5.827213623594043 -1.44186143751749 -30.037692105218568 0 0 0
1565 0 3 0 0.832459089084864 -1.44186143751749 -30.037692105218568 0 0 0
1566 0 3 0 3.3298363563394506 -2.8837228750349784 -30.037692105218568 0 0 0
1567 0 3 0 0.832459089084864 -4.325584312552467 -30.037692105218568 0 0 0
1568 0 3 0 3.3298363563394506 -1.7763568394002505e-15 -30.037692105218568 0 0 0
1570 0 3 0 4.994754534509177 -1.7763568394002505e-15 -27.883939644558662 0 0 0
1571 0 3 0 2.49737726725459 -1.44186143751749 -27.883939644558662 0 0 0
1593 0 3 0 0 -1.7763568394002505e-15 -27.883939644558662 0 0 0
1645 0 3 0 5.827213623594043 -4.325584312552467 -30.037692105218568 0 0 0
1646 0 3 0 8.324590890848635 -5.767445750069956 -30.037692105218568 0 0 0
1647 0 3 0 5.827213623594043 -7.209307187587444 -30.037692105218568 0 0 0
1648 0 3 0 8.324590890848635 -2.8837228750349784 -30.037692105218568 0 0 0
1649 0 3 0 7.492131801763767 -1.44186143751749 -27.883939644558662 0 0 0
1650 0 3 0 9.989509069018363 -2.8837228750349784 -27.883939644558662 0 0 0
1651 0 3 0 7.492131801763771 -4.325584312552468 -27.883939644558662 0 0 0
1652 0 3 0 9.989509069018355 -1.7763568394002505e-15 -27.883939644558662 0 0 0
1656 0 3 0 0.8324590890848604 -7.209307187587445 -30.037692105218568 0 0 0
1657 0 3 0 3.3298363563394506 -8.651168625104933 -30.037692105218568 0 0 0
1658 0 3 0 3.3298363563394506 -5.767445750069955 -30.037692105218568 0 0 0
1659 0 3 0 2.49737726725459 -4.325584312552467 -27.883939644558662 0 0 0
1660 0 3 0 4.994754534509179 -5.767445750069956 -27.883939644558662 0 0 0
1661 0 3 0 2.49737726725459 -7.209307187587444 -27.883939644558662 0 0 0
1662 0 3 0 4.994754534509179 -2.8837228750349784 -27.883939644558662 0 0 0
1713 0 3 0 8.324590890848635 -8.651168625104933 -30.037692105218568 0 0 0
1714 0 3 0 7.492131801763771 -7.209307187587444 -27.883939644558662 0 0 0
1715 0 3 0 9.989509069018359 -8.651168625104933 -27.883939644558662 0 0 0
1716 0 3 0 9.989509069018363 -5.767445750069956 -27.883939644558662 0 0 0
1719 0 3 0 4.994754534509179 -8.651168625104933 -27.883939644558662 0 0 0
1595 0 3 0 1.6649181781697244 -1.7763568394002505e-15 -25.730187183899435 0 0 0
1654 0 3 0 9.157049979933491 -1.44186143751749 -25.730187183899435 0 0 0
1663 0 3 0 4.162295445424315 -1.44186143751749 -25.730187183899435 0 0 0
1664 0 3 0 6.659672712678903 -2.8837228750349784 -25.730187183899435 0 0 0
1665 0 3 0 4.162295445424316 -4.325584312552468 -25.730187183899435 0 0 0
1666 0 3 0 6.659672712678903 -1.7763568394002505e-15 -25.730187183899435 0 0 0
1680 0 3 0 1.6649181781697262 -5.767445750069956 -25.730187183899435 0 0 0
1682 0 3 0 1.6649181781697262 -2.8837228750349784 -25.730187183899435 0 0 0
1717 0 3 0 9.157049979933495 -4.325584312552467 -25.730187183899435 0 0 0
1718 0 3 0 9.157049979933495 -7.209307187587445 -25.730187183899435 0 0 0
1720 0 3 0 4.162295445424316 -7.209307187587444 -25.730187183899435 0 0 0
1721 0 3 0 6.659672712678903 -8.651168625104933 -25.730187183899435 0 0 0
1722 0 3 0 6.659672712678907 -5.767445750069956 -25.730187183899435 0 0 0
1731 0 3 0 1.6649181781697262 -8.651168625104933 -25.730187183899435 0 0 0
1480 0 3 0 1.6649181781697244 -1.7763568394002505e-15 -32.19144456587688 0 0 0
1546 0 3 0 9.157049979933495 -1.44186143751749 -32.19144456587688 0 0 0
1547 0 3 0 4.162295445424316 -1.44186143751749 -32.19144456587688 0 0 0
1548 0 3 0 6.659672712678907 -2.8837228750349784 -32.19144456587688 0 0 0
1549 0 3 0 4.162295445424316 -4.325584312552467 -32.19144456587688 0 0 0
1550 0 3 0 6.659672712678907 -1.7763568394002505e-15 -32.19144456587688 0 0 0
1562 0 3 0 1.6649181781697244 -5.767445750069957 -32.19144456587688 0 0 0
1564 0 3 0 1.6649181781697262 -2.8837228750349784 -32.19144456587688 0 0 0
1640 0 3 0 9.157049979933491 -4.325584312552467 -32.19144456587688 0 0 0
1641 0 3 0 9.157049979933499 -7.209307187587444 -32.19144456587688 0 0 0
1642 0 3 0 4.162295445424315 -7.209307187587445 -32.19144456587688 0 0 0
1643 0 3 0 6.659672712678907 -8.651168625104933 -32.19144456587688 0 0 0
1644 0 3 0 6.659672712678907 -5.767445750069955 -32.19144456587688 0 0 0
1655 0 3 0 1.6649181781697227 -8.651168625104933 -32.19144456587688 0 0 0
1427 0 3 0 -6.659672712678905 8.651168625104932 -30.037692105218568 0 0 0
1428 0 3 0 -9.157049979933495 7.209307187587443 -30.037692105218568 0 0 0
1429 0 3 0 -9.989509069018359 8.651168625104932 -27.883939644558662 0 0 0
1442 0 3 0 -4.162295445424316 7.209307187587443 -30.037692105218568 0 0 0
1443 0 3 0 -1.664918178169728 5.767445750069957 -30.037692105218568 0 0 0
1444 0 3 0 -4.162295445424315 4.325584312552467 -30.037692105218568 0 0 0
1445 0 3 0 -1.6649181781697298 8.651168625104932 -30.037692105218568 0 0 0
1446 0 3 0 -1.7763568394002505e-15 8.651168625104932 -27.883939644558662 0 0 0
1447 0 3 0 -2.4973772672545893 7.209307187587443 -27.883939644558662 0 0 0
1450 0 3 0 -9.157049979933497 4.325584312552467 -30.037692105218568 0 0 0
1451 0 3 0 -6.659672712678905 2.8837228750349784 -30.037692105218568 0 0 0
1452 0 3 0 -9.157049979933495 1.44186143751749 -30.037692105218568 0 0 0
1453 0 3 0 -6.659672712678905 5.767445750069955 -30.037692105218568 0 0 0
1454 0 3 0 -7.492131801763771 7.209307187587443 -27.883939644558662 0 0 0
1455 0 3 0 -4.994754534509179 5.767445750069957 -27.883939644558662 0 0 0
1456 0 3 0 -7.492131801763769 4.325584312552467 -27.883939644558662 0 0 0
1457 0 3 0 -4.9947545345091795 8.651168625104932 -27.883939644558662 0 0 0
1460 0 3 0 -9.989509069018359 2.8837228750349784 -27.883939644558662 0 0 0
1461 0 3 0 -9.989509069018359 5.767445750069955 -27.883939644558662 0 0 0
1497 0 3 0 -4.162295445424315 1.4418614375174883 -30.037692105218568 0 0 0
1500 0 3 0 -1.6649181781697262 2.8837228750349766 -30.037692105218568 0 0 0
1501 0 3 0 -2.4973772672545884 4.325584312552467 -27.883939644558662 0 0 0
1502 0 3 0 -1.7763568394002505e-15 2.8837228750349784 -27.883939644558662 0 0 0
1503 0 3 0 -2.4973772672545884 1.4418614375174883 -27.883939644558662 0 0 0
1504 0 3 0 -1.7763568394002505e-15 5.767445750069955 -27.883939644558662 0 0 0
1517 0 3 0 -7.492131801763769 1.4418614375174883 -27.883939644558662 0 0 0
1520 0 3 0 -4.994754534509177 2.8837228750349766 -27.883939644558662 0 0 0
1458 0 3 0 -3.3298363563394515 8.651168625104932 -25.730187183899435 0 0 0
1459 0 3 0 -5.8272136235940435 7.209307187587443 -25.730187183899435 0 0 0
1462 0 3 0 -8.324590890848633 5.767445750069957 -25.730187183899435 0 0 0
1463 0 3 0 -8.324590890848633 8.651168625104932 -25.730187183899435 0 0 0
1505 0 3 0 -0.8324590890848622 7.209307187587443 -25.730187183899435 0 0 0
1507 0 3 0 -0.8324590890848622 4.325584312552467 -25.730187183899435 0 0 0
1521 0 3 0 -5.827213623594043 4.325584312552467 -25.730187183899435 0 0 0
1522 0 3 0 -3.3298363563394524 2.8837228750349784 -25.730187183899435 0 0 0
1523 0 3 0 -5.827213623594043 1.4418614375174883 -25.730187183899435 0 0 0
1524 0 3 0 -3.3298363563394515 5.767445750069955 -25.730187183899435 0 0 0
1534 0 3 0 -8.324590890848631 2.8837228750349766 -25.730187183899435 0 0 0
1594 0 3 0 -0.8324590890848622 1.44186143751749 -25.730187183899435 0 0 0
1423 0 3 0 -3.3298363563394533 8.651168625104932 -32.19144456587688 0 0 0
1424 0 3 0 -5.827213623594041 7.209307187587443 -32.19144456587688 0 0 0
1425 0 3 0 -8.324590890848631 5.767445750069955 -32.19144456587688 0 0 0
1426 0 3 0 -8.324590890848631 8.651168625104932 -32.19144456587688 0 0 0
1432 0 3 0 -0.832459089084864 7.209307187587443 -32.19144456587688 0 0 0
1434 0 3 0 -0.8324590890848622 4.325584312552467 -32.19144456587688 0 0 0
1438 0 3 0 -5.827213623594043 4.325584312552467 -32.19144456587688 0 0 0
1439 0 3 0 -3.3298363563394533 2.8837228750349784 -32.19144456587688 0 0 0
1440 0 3 0 -5.827213623594041 1.44186143751749 -32.19144456587688 0 0 0
1441 0 3 0 -3.3298363563394533 5.767445750069955 -32.19144456587688 0 0 0
1449 0 3 0 -8.324590890848631 2.8837228750349784 -32.19144456587688 0 0 0
1479 0 3 0 -0.8324590890848622 1.4418614375174883 -32.19144456587688 0 0 0
1436 0 3 0 3.3298363563394506 8.651168625104932 -30.037692105218568 0 0 0
1437 0 3 0 0.8324590890848604 7.209307187587443 -30.037692105218568 0 0 0
1473 0 3 0 5.827213623594043 7.209307187587443 -30.037692105218568 0 0 0
1474 0 3 0 8.324590890848635 5.767445750069955 -30.037692105218568 0 0 0
1475 0 3 0 5.827213623594043 4.325584312552467 -30.037692105218568 0 0 0
1476 0 3 0 8.324590890848635 8.651168625104932 -30.037692105218568 0 0 0
1477 0 3 0 9.989509069018363 8.651168625104932 -27.883939644558662 0 0 0
1478 0 3 0 7.492131801763771 7.209307187587443 -27.883939644558662 0 0 0
1483 0 3 0 0.832459089084864 4.325584312552467 -30.037692105218568 0 0 0
1484 0 3 0 3.3298363563394506 2.8837228750349784 -30.037692105218568 0 0 0
1485 0 3 0 0.832459089084864 1.4418614375174883 -30.037692105218568 0 0 0
1486 0 3 0 3.3298363563394506 5.767445750069955 -30.037692105218568 0 0 0
1487 0 3 0 2.49737726725459 7.209307187587443 -27.883939644558662 0 0 0
1488 0 3 0 4.994754534509177 5.767445750069955 -27.883939644558662 0 0 0
1489 0 3 0 2.4973772672545884 4.325584312552467 -27.883939644558662 0 0 0
1490 0 3 0 4.994754534509179 8.651168625104932 -27.883939644558662 0 0 0
1551 0 3 0 5.827213623594043 1.44186143751749 -30.037692105218568 0 0 0
1554 0 3 0 8.324590890848635 2.8837228750349784 -30.037692105218568 0 0 0
1555 0 3 0 7.492131801763771 4.325584312552467 -27.883939644558662 0 0 0
1556 0 3 0 9.989509069018359 2.8837228750349784 -27.883939644558662 0 0 0
1557 0 3 0 7.492131801763767 1.4418614375174883 -27.883939644558662 0 0 0
1558 0 3 0 9.989509069018363 5.767445750069955 -27.883939644558662 0 0 0
1569 0 3 0 2.49737726725459 1.44186143751749 -27.883939644558662 0 0 0
1572 0 3 0 4.994754534509177 2.8837228750349784 -27.883939644558662 0 0 0
1491 0 3 0 6.659672712678903 8.651168625104932 -25.730187183899435 0 0 0
1492 0 3 0 4.162295445424316 7.209307187587443 -25.730187183899435 0 0 0
1506 0 3 0 1.6649181781697244 5.767445750069955 -25.730187183899435 0 0 0
1508 0 3 0 1.6649181781697262 8.651168625104932 -25.730187183899435 0 0 0
1559 0 3 0 9.157049979933495 7.209307187587443 -25.730187183899435 0 0 0
1560 0 3 0 9.157049979933495 4.325584312552467 -25.730187183899435 0 0 0
1573 0 3 0 4.162295445424316 4.325584312552467 -25.730187183899435 0 0 0
1574 0 3 0 6.659672712678903 2.8837228750349784 -25.730187183899435 0 0 0
1575 0 3 0 4.162295445424315 1.4418614375174883 -25.730187183899435 0 0 0
1576 0 3 0 6.659672712678907 5.767445750069955 -25.730187183899435 0 0 0
1597 0 3 0 1.6649181781697244 2.8837228750349784 -25.730187183899435 0 0 0
1653 0 3 0 9.157049979933491 1.44186143751749 -25.730187183899435 0 0 0
1430 0 3 0 6.659672712678907 8.651168625104932 -32.19144456587688 0 0 0
1431 0 3 0 4.162295445424315 7.209307187587443 -32.19144456587688 0 0 0
1433 0 3 0 1.6649181781697244 5.767445750069957 -32.19144456587688 0 0 0
1435 0 3 0 1.6649181781697227 8.651168625104932 -32.19144456587688 0 0 0
1467 0 3 0 9.157049979933495 7.209307187587443 -32.19144456587688 0 0 0
1468 0 3 0 9.157049979933491 4.325584312552467 -32.19144456587688 0 0 0
1469 0 3 0 4.162295445424316 4.325584312552467 -32.19144456587688 0 0 0
1470 0 3 0 6.659672712678907 2.8837228750349784 -32.19144456587688 0 0 0
1471 0 3 0 4.162295445424316 1.4418614375174883 -32.19144456587688 0 0 0
1472 0 3 0 6.659672712678907 5.767445750069955 -32.19144456587688 0 0 0
1482 0 3 0 1.6649181781697262 2.8837228750349766 -32.19144456587688 0 0 0
1545 0 3 0 9.157049979933495 1.44186143751749 -32.19144456587688 0 0 0
1619 0 3 0 -1.6649181781697262 -1.7763568394002505e-15 -23.576434723240194 0 0 0
1620 0 3 0 -4.162295445424316 -1.44186143751749 -23.576434723240194 0 0 0
1630 0 3 0 -9.157049979933493 -1.44186143751749 -23.576434723240194 0 0 0
1631 0 3 0 -6.659672712678907 -2.8837228750349784 -23.576434723240194 0 0 0
1632 0 3 0 -9.157049979933493 -4.325584312552467 -23.576434723240194 0 0 0
1633 0 3 0 -6.659672712678905 -1.7763568394002505e-15 -23.576434723240194 0 0 0
1695 0 3 0 -4.162295445424317 -4.325584312552467 -23.576434723240194 0 0 0
1696 0 3 0 -1.6649181781697262 -5.767445750069956 -23.576434723240194 0 0 0
1697 0 3 0 -4.162295445424316 -7.209307187587444 -23.576434723240194 0 0 0
1698 0 3 0 -1.6649181781697262 -2.8837228750349784 -23.576434723240194 0 0 0
1704 0 3 0 -9.157049979933495 -7.209307187587445 -23.576434723240194 0 0 0
1705 0 3 0 -6.659672712678906 -8.651168625104933 -23.576434723240194 0 0 0
1706 0 3 0 -6.659672712678906 -5.767445750069955 -23.576434723240194 0 0 0
1739 0 3 0 -1.6649181781697244 -8.651168625104933 -23.576434723240194 0 0 0
1635 0 3 0 -4.99475453450918 -1.7763568394002505e-15 -21.4226822625804 0 0 0
1636 0 3 0 -7.492131801763768 -1.44186143751749 -21.4226822625804 0 0 0
1638 0 3 0 -9.989509069018359 -2.8837228750349784 -21.4226822625804 0 0 0
1639 0 3 0 -9.989509069018357 -1.7763568394002505e-15 -21.4226822625804 0 0 0
1699 0 3 0 -2.497377267254591 -1.44186143751749 -21.4226822625804 0 0 0
1701 0 3 0 -2.4973772672545893 -4.325584312552468 -21.4226822625804 0 0 0
1707 0 3 0 -7.492131801763769 -4.325584312552467 -21.4226822625804 0 0 0
1708 0 3 0 -4.9947545345091795 -5.767445750069956 -21.4226822625804 0 0 0
1709 0 3 0 -7.492131801763767 -7.209307187587444 -21.4226822625804 0 0 0
1710 0 3 0 -4.9947545345091795 -2.8837228750349784 -21.4226822625804 0 0 0
1711 0 3 0 -9.989509069018357 -8.651168625104933 -21.4226822625804 0 0 0
1712 0 3 0 -9.989509069018357 -5.767445750069955 -21.4226822625804 0 0 0
1740 0 3 0 -2.49737726725459 -7.209307187587444 -21.4226822625804 0 0 0
1743 0 3 0 -4.994754534509179 -8.651168625104933 -21.4226822625804 0 0 0
210 70 1 0.417 -2.581214804865212 -3.800026399157148 -18.318132262491556 0 0 0
208 70 2 -0.834 -3.4616719280967896 -4.122569399593071 -18.125787469035746 0 0 0
209 70 1 0.417 -3.658189252415495 -3.7786977780996747 -17.25432212194489 0 0 0
316 106 2 -0.834 -3.3965750847584504 -6.983982195481598 -18.249361615030086 1 0 0
317 106 1 0.417 -4.328307972128051 -7.097187964292788 -18.437227008612407 1 0 0
318 106 1 0.417 -3.2185136455647836 -6.067796348317436 -18.46180989212218 1 0 0
361 121 2 -0.834 -5.773281437683059 -5.335202660596405 -18.40446507906952 0 0 0
363 121 1 0.417 -4.981651120728133 -4.8479150827428015 -18.17619106710897 0 0 0
362 121 1 0.417 -6.2771030321255115 -5.369047020246817 -17.591245705286447 0 0 0
228 76 1 0.417 -9.631738949686806 -7.156178064544646 -18.953250363036542 0 0 0
226 76 2 -0.834 -8.747758555025918 -6.997364502996929 -18.622189637512374 0 0 0
301 101 2 -0.834 -9.093198185458016 -3.9870387900496764 -18.403420257119368 0 0 0
303 101 1 0.417 -8.270595754157718 -4.249573814280283 -18.816520594136026 0 0 0
302 101 1 0.417 -8.983950628508927 -3.0533304758620314 -18.223171822708142 0 0 0
606 202 1 0.417 -0.1828582069551743 -7.633295261735735 -17.999619291710356 0 0 0
892 298 2 -0.834 -5.9262244164456295 -2.063976318575236 -18.821358594808615 0 0 0
227 76 1 0.417 -8.841816974544225 -6.244884448720573 -18.038067838254943 0 0 0
604 202 2 -0.834 -0.7553350832390056 -6.907711563844137 -17.750545481852612 0 0 0
605 202 1 0.417 -1.6259844780866164 -7.300190774668653 -17.686037863285268 0 0 0
894 298 1 0.417 -5.439160103844418 -2.661630563538937 -18.2540434129645 0 0 0
893 298 1 0.417 -5.57126507527244 -2.220867656890003 -19.69640686498491 0 0 0
597 199 1 0.417 -6.540092675046553 -7.470929626871111 -18.70847435289009 0 0 0
596 199 1 0.417 -6.577800496763572 -8.841952792093572 -19.34942370564345 0 0 0
595 199 2 -0.834 -6.0884180766528555 -8.314810071160695 -18.717836995040894 0 0 0
508 170 2 -0.834 -7.36622761844832 -4.556600712150045 -16.18853192553125 0 -1 0
182 61 1 0.417 -2.6559645140767723 -0.8952414170077194 -19.409058539779185 0 0 0
564 188 1 0.417 -0.5522577113638008 -2.922451190118961 -19.246360107288883 0 0 0
695 232 1 0.417 -0.9283888190386502 9.458064806980625 -19.16650850797804 0 0 0
661 221 2 -0.834 -6.73760447235957 -7.904458464937732 -16.15866234109275 1 0 0
663 221 1 0.417 -6.823244242561842 -7.783888765060247 -17.104423429294975 1 0 0
662 221 1 0.417 -6.156789533157842 -8.659468412013196 -16.064604609587903 1 0 0
503 168 1 0.417 -8.924441486236388 -1.338945578481452 -16.35725846060361 2 -1 0
477 159 1 0.417 2.398209615228094 -5.215612876308917 -15.128487744361795 1 0 0
613 205 2 -0.834 -4.0468754426857565 -2.368641571200012 -15.995337186007195 0 -1 0
533 178 1 0.417 8.762685430302321 -6.49812977819351 -18.82027689584262 0 0 0
562 188 2 -0.834 -1.029497204240574 -2.682449718413844 -18.45203859834844 0 0 0
694 232 2 -0.834 -0.7095632750623242 9.595858259359764 -18.244848367565666 0 0 0
311 104 1 0.417 -2.9175323359625276 -9.968476880989082 -21.562082608553656 0 1 0
1380 460 1 0.417 -3.720540262715577 -9.27809888066851 -18.25680986137093 0 1 0
509 170 1 0.417 -7.449384020518906 -4.24709946994194 -15.286522527558198 0 -1 0
510 170 1 0.417 -8.260627906418204 -4.545865697597684 -16.529380622068018 0 -1 0
696 232 1 0.417 0.1529514597965882 -9.969422765435377 -18.262396846885984 0 1 0
430 144 2 -0.834 -9.952233299724245 0.7186199843112533 -16.324491268232443 1 -1 0
432 144 1 0.417 -9.70845715273179 0.8197232921400399 -17.24464453544488 1 -1 0
216 72 1 0.417 8.156932716839018 -4.424874120213443 -18.243188381225725 -1 0 0
532 178 2 -0.834 8.744538182151578 -7.453978612782704 -18.86776896255605 0 0 0
563 188 1 0.417 -0.4430480713383176 -2.9276494249672753 -17.73632515675119 0 0 0
534 178 1 0.417 7.870470579421367 -7.661287820849202 -19.198333547266447 0 0 0
1668 0 3 0 8.324590890848627 -1.7763568394002505e-15 -23.576434723240194 0 0 0
1669 0 3 0 5.827213623594043 -1.44186143751749 -23.576434723240194 0 0 0
1683 0 3 0 0.8324590890848604 -1.44186143751749 -23.576434723240194 0 0 0
1684 0 3 0 3.3298363563394506 -2.8837228750349784 -23.576434723240194 0 0 0
1685 0 3 0 0.8324590890848658 -4.325584312552468 -23.576434723240194 0 0 0
1686 0 3 0 3.3298363563394506 -1.7763568394002505e-15 -23.576434723240194 0 0 0
1723 0 3 0 5.827213623594043 -4.325584312552467 -23.576434723240194 0 0 0
1724 0 3 0 8.324590890848627 -5.767445750069955 -23.576434723240194 0 0 0
1725 0 3 0 5.827213623594043 -7.209307187587445 -23.576434723240194 0 0 0
1726 0 3 0 8.324590890848627 -2.8837228750349784 -23.576434723240194 0 0 0
1732 0 3 0 0.832459089084864 -7.209307187587444 -23.576434723240194 0 0 0
1733 0 3 0 3.3298363563394506 -8.651168625104933 -23.576434723240194 0 0 0
1734 0 3 0 3.3298363563394506 -5.767445750069956 -23.576434723240194 0 0 0
1744 0 3 0 8.324590890848631 -8.651168625104933 -23.576434723240194 0 0 0
412 138 2 -0.834 8.904191326006648 -1.2891689408619644 -18.46212166090938 -1 0 0
414 138 1 0.417 9.763684104287089 -1.439898284633479 -18.855571883473917 -1 0 0
384 128 1 0.417 4.50796025097355 -7.320282967969301 -18.10420867109035 0 0 0
215 72 1 0.417 9.530976965722902 -4.354973599085808 -18.87489664786564 -1 0 0
1688 0 3 0 4.994754534509179 -1.7763568394002505e-15 -21.4226822625804 0 0 0
1689 0 3 0 2.49737726725459 -1.44186143751749 -21.4226822625804 0 0 0
1700 0 3 0 1.7763568394002505e-15 -2.8837228750349784 -21.4226822625804 0 0 0
1702 0 3 0 0 -1.7763568394002505e-15 -21.4226822625804 0 0 0
1727 0 3 0 7.492131801763771 -1.44186143751749 -21.4226822625804 0 0 0
1728 0 3 0 9.989509069018355 -2.8837228750349784 -21.4226822625804 0 0 0
1729 0 3 0 7.492131801763767 -4.325584312552467 -21.4226822625804 0 0 0
1730 0 3 0 9.989509069018355 -1.7763568394002505e-15 -21.4226822625804 0 0 0
1735 0 3 0 2.49737726725459 -4.325584312552467 -21.4226822625804 0 0 0
1736 0 3 0 4.994754534509177 -5.767445750069955 -21.4226822625804 0 0 0
1737 0 3 0 2.49737726725459 -7.209307187587445 -21.4226822625804 0 0 0
1738 0 3 0 4.994754534509177 -2.8837228750349784 -21.4226822625804 0 0 0
1741 0 3 0 0 -8.651168625104933 -21.4226822625804 0 0 0
1742 0 3 0 1.7763568394002505e-15 -5.767445750069956 -21.4226822625804 0 0 0
1745 0 3 0 7.492131801763771 -7.209307187587443 -21.4226822625804 0 0 0
1746 0 3 0 9.989509069018355 -8.651168625104933 -21.4226822625804 0 0 0
1747 0 3 0 9.989509069018355 -5.767445750069955 -21.4226822625804 0 0 0
1748 0 3 0 4.994754534509179 -8.651168625104933 -21.4226822625804 0 0 0
39 13 1 0.417 5.579474372103622 -5.115238402972978 -18.157737384428163 0 0 0
258 86 1 0.417 3.8180959007360435 -2.999602570886463 -18.698354141696168 0 0 0
256 86 2 -0.834 2.972040001336259 -2.7956911532348663 -18.299782260122463 0 0 0
257 86 1 0.417 2.9464615679558186 -3.328589856749379 -17.505005366714236 0 0 0
383 128 1 0.417 3.06201631583712 -7.1118650749766585 -18.50135113580608 0 0 0
37 13 2 -0.834 5.873895266876648 -4.3272049098932825 -18.6144389778007 0 0 0
38 13 1 0.417 6.094097628195053 -4.6287370358431295 -19.49586394826852 0 0 0
382 128 2 -0.834 3.938038091328094 -6.7420978331689625 -18.611311215059285 0 0 0
332 111 1 0.417 1.6901586093302345 -5.168069342920996 -18.596529965852287 0 0 0
333 111 1 0.417 0.2527489034142363 -5.356009690224827 -18.160124650221146 0 0 0
32 11 1 0.417 1.9852576301259504 -9.284795115146288 -18.853881973783988 0 0 0
31 11 2 -0.834 1.8245733150587728 -8.476145726316586 -18.367541840114303 0 0 0
214 72 2 -0.834 8.707728679833282 -4.842375218913712 -18.90545539205145 -1 0 0
331 111 2 -0.834 0.9330186910804201 -4.689833269219896 -18.258483172930244 0 0 0
33 11 1 0.417 2.049729360158148 -8.691615348456347 -17.46244291444614 0 0 0
348 116 1 0.417 7.9616139464906315 -2.228051729324827 -15.535457074748422 0 0 0
346 116 2 -0.834 8.242206849397435 -3.1256336269100498 -15.35699083345354 0 0 0
347 116 1 0.417 9.172832161818365 -3.135130023899542 -15.580785626691725 0 0 0
670 224 2 -0.834 6.22961674312114 -1.7791891283003398 -18.06837064202929 0 0 0
672 224 1 0.417 6.015618197857245 -2.7119564305547854 -18.087905486844583 0 0 0
387 129 1 0.417 2.657052034619497 -0.9217068145854288 -18.721198698647154 0 0 0
671 224 1 0.417 7.174757482697105 -1.7466552044785946 -18.216306868154035 0 0 0
413 138 1 0.417 8.900686929183054 -0.3574262218643245 -18.24284948866047 -1 0 0
966 322 1 0.417 6.2795740589029645 -7.535887903623016 -17.311455186391324 0 0 0
1316 439 1 0.417 6.4928169590383025 -9.317794412559403 -19.42370130006582 0 1 0
488 163 1 0.417 2.07036647391695 8.709616297777488 -18.10504658092926 0 -1 0
176 59 1 0.417 6.924394840673942 -0.8343995556864954 -16.609449134223173 -1 -1 0
599 200 1 0.417 -0.5981572935855883 -2.9628105111450953 -15.167329883588156 0 0 0
323 108 1 0.417 -9.866227566650936 -9.779100102778653 -18.546815967508593 0 1 0
1315 439 2 -0.834 6.180975209951393 -8.71294607467626 -18.750502280785465 0 1 0
1317 439 1 0.417 5.75876960845606 -9.274426490589768 -18.100299323402663 0 1 0
487 163 2 -0.834 1.9685830746185893 8.837217220073876 -19.048281720120368 0 -1 0
283 95 2 -0.834 4.218388319938979 9.934898122541524 -15.88313980875136 0 -1 0
285 95 1 0.417 4.425052125267703 -9.12641381910652 -15.7112754075373 0 0 0
284 95 1 0.417 4.782285621261767 9.695588440050473 -16.6186962439572 0 -1 0
1314 438 1 0.417 10.066135096188225 -0.3064954693963404 -14.72839492268622 0 0 0
989 330 1 0.417 1.5614004517485434 -9.511227821879292 -15.75328707207887 0 0 0
988 330 2 -0.834 1.1577674022727944 9.821111363659748 -16.331114726725968 0 -1 0
628 210 2 -0.834 -7.436797609200481 9.941239832301664 -20.173635572733875 0 0 0
324 108 1 0.417 8.915722690829208 -9.23474648315431 -18.683189642555703 -1 1 0
629 210 1 0.417 -7.813698221385403 -9.654451449006752 -20.965189339475184 0 1 0
457 153 2 -0.834 -8.540186802721324 -1.1043464193149344 -18.69957762710865 0 0 0
458 153 1 0.417 -8.57292688381331 -0.14783809568460882 -18.683712162132426 0 0 0
322 108 2 -0.834 9.445397474340846 9.965995023056339 -18.85182032258528 -1 0 0
459 153 1 0.417 -7.606448854020041 -1.313021420920105 -18.67094091180213 0 0 0
183 61 1 0.417 -2.789860311428625 -1.0084894633223147 -17.905262144194204 0 0 0
310 104 2 -0.834 -2.5136627431370187 9.963553518494797 -20.695533745392662 0 0 0
181 61 2 -0.834 -2.8261176033986857 -0.37615788459340394 -18.622989547244636 0 0 0
630 210 1 0.417 -8.057008172625915 9.257705136873016 -19.919948808618063 0 0 0
1464 0 3 0 -6.659672712678906 8.651168625104932 -23.576434723240194 0 0 0
1465 0 3 0 -9.157049979933495 7.209307187587443 -23.576434723240194 0 0 0
1525 0 3 0 -4.162295445424316 7.209307187587443 -23.576434723240194 0 0 0
1526 0 3 0 -1.6649181781697262 5.767445750069955 -23.576434723240194 0 0 0
1527 0 3 0 -4.162295445424317 4.325584312552467 -23.576434723240194 0 0 0