ITEM: TIMESTEP
40000
ITEM: NUMBER OF ATOMS
1748
ITEM: BOX BOUNDS pp pp pp
-1.0093999999999999e+01 1.0093999999999999e+01
-9.9900000000000002e+00 9.9900000000000002e+00
-3.2622344019771305e+01 1.6495344019530414e+01
ITEM: ATOMS id type element mass x y z vx vy vz ix iy iz
1498 3 C 197 -1.66492 -1.77636e-15 -30.0377 0 0 0 0 0 0
1499 3 C 197 -4.1623 -1.44186 -30.0377 0 0 0 0 0 0
1513 3 C 197 -9.15705 -1.44186 -30.0377 0 0 0 0 0 0
1514 3 C 197 -6.65967 -2.88372 -30.0377 0 0 0 0 0 0
1515 3 C 197 -9.15705 -4.32558 -30.0377 0 0 0 0 0 0
1516 3 C 197 -6.65967 -1.77636e-15 -30.0377 0 0 0 0 0 0
1518 3 C 197 -4.99475 -1.77636e-15 -27.8839 0 0 0 0 0 0
1519 3 C 197 -7.49213 -1.44186 -27.8839 0 0 0 0 0 0
1531 3 C 197 -9.98951 -2.88372 -27.8839 0 0 0 0 0 0
1532 3 C 197 -9.98951 -1.77636e-15 -27.8839 0 0 0 0 0 0
1586 3 C 197 -4.1623 -4.32558 -30.0377 0 0 0 0 0 0
1587 3 C 197 -1.66492 -5.76745 -30.0377 0 0 0 0 0 0
1588 3 C 197 -4.1623 -7.20931 -30.0377 0 0 0 0 0 0
1589 3 C 197 -1.66492 -2.88372 -30.0377 0 0 0 0 0 0
1590 3 C 197 -2.49738 -1.44186 -27.8839 0 0 0 0 0 0
1591 3 C 197 -1.77636e-15 -2.88372 -27.8839 0 0 0 0 0 0
1592 3 C 197 -2.49738 -4.32558 -27.8839 0 0 0 0 0 0
1607 3 C 197 -9.15705 -7.20931 -30.0377 0 0 0 0 0 0
1608 3 C 197 -6.65967 -8.65117 -30.0377 0 0 0 0 0 0
1609 3 C 197 -6.65967 -5.76745 -30.0377 0 0 0 0 0 0
1610 3 C 197 -7.49213 -4.32558 -27.8839 0 0 0 0 0 0
1611 3 C 197 -4.99475 -5.76745 -27.8839 0 0 0 0 0 0
1612 3 C 197 -7.49213 -7.20931 -27.8839 0 0 0 0 0 0
1613 3 C 197 -4.99475 -2.88372 -27.8839 0 0 0 0 0 0
1626 3 C 197 -9.98951 -8.65117 -27.8839 0 0 0 0 0 0
1627 3 C 197 -9.98951 -5.76745 -27.8839 0 0 0 0 0 0
1675 3 C 197 -1.66492 -8.65117 -30.0377 0 0 0 0 0 0
1676 3 C 197 -2.49738 -7.20931 -27.8839 0 0 0 0 0 0
1677 3 C 197 -1.77636e-15 -8.65117 -27.8839 0 0 0 0 0 0
1678 3 C 197 -1.77636e-15 -5.76745 -27.8839 0 0 0 0 0 0
1691 3 C 197 -4.99475 -8.65117 -27.8839 0 0 0 0 0 0
1533 3 C 197 -8.32459 -1.77636e-15 -25.7302 0 0 0 0 0 0
1596 3 C 197 -0.832459 -1.44186 -25.7302 0 0 0 0 0 0
1614 3 C 197 -5.82721 -1.44186 -25.7302 0 0 0 0 0 0
1615 3 C 197 -3.32984 -2.88372 -25.7302 0 0 0 0 0 0
1616 3 C 197 -5.82721 -4.32558 -25.7302 0 0 0 0 0 0
1617 3 C 197 -3.32984 -1.77636e-15 -25.7302 0 0 0 0 0 0
1628 3 C 197 -8.32459 -5.76745 -25.7302 0 0 0 0 0 0
1629 3 C 197 -8.32459 -2.88372 -25.7302 0 0 0 0 0 0
1679 3 C 197 -0.832459 -4.32558 -25.7302 0 0 0 0 0 0
1681 3 C 197 -0.832459 -7.20931 -25.7302 0 0 0 0 0 0
1692 3 C 197 -5.82721 -7.20931 -25.7302 0 0 0 0 0 0
1693 3 C 197 -3.32984 -8.65117 -25.7302 0 0 0 0 0 0
1694 3 C 197 -3.32984 -5.76745 -25.7302 0 0 0 0 0 0
1703 3 C 197 -8.32459 -8.65117 -25.7302 0 0 0 0 0 0
1448 3 C 197 -8.32459 -1.77636e-15 -32.1914 0 0 0 0 0 0
1481 3 C 197 -0.832459 -1.44186 -32.1914 0 0 0 0 0 0
1493 3 C 197 -5.82721 -1.44186 -32.1914 0 0 0 0 0 0
1494 3 C 197 -3.32984 -2.88372 -32.1914 0 0 0 0 0 0
1495 3 C 197 -5.82721 -4.32558 -32.1914 0 0 0 0 0 0
1496 3 C 197 -3.32984 -1.77636e-15 -32.1914 0 0 0 0 0 0
1511 3 C 197 -8.32459 -5.76745 -32.1914 0 0 0 0 0 0
1512 3 C 197 -8.32459 -2.88372 -32.1914 0 0 0 0 0 0
1561 3 C 197 -0.832459 -4.32558 -32.1914 0 0 0 0 0 0
1563 3 C 197 -0.832459 -7.20931 -32.1914 0 0 0 0 0 0
1583 3 C 197 -5.82721 -7.20931 -32.1914 0 0 0 0 0 0
1584 3 C 197 -3.32984 -8.65117 -32.1914 0 0 0 0 0 0
1585 3 C 197 -3.32984 -5.76745 -32.1914 0 0 0 0 0 0
1606 3 C 197 -8.32459 -8.65117 -32.1914 0 0 0 0 0 0
1552 3 C 197 8.32459 -1.77636e-15 -30.0377 0 0 0 0 0 0
1553 3 C 197 5.82721 -1.44186 -30.0377 0 0 0 0 0 0
1565 3 C 197 0.832459 -1.44186 -30.0377 0 0 0 0 0 0
1566 3 C 197 3.32984 -2.88372 -30.0377 0 0 0 0 0 0
1567 3 C 197 0.832459 -4.32558 -30.0377 0 0 0 0 0 0
1568 3 C 197 3.32984 -1.77636e-15 -30.0377 0 0 0 0 0 0
1570 3 C 197 4.99475 -1.77636e-15 -27.8839 0 0 0 0 0 0
1571 3 C 197 2.49738 -1.44186 -27.8839 0 0 0 0 0 0
1593 3 C 197 0 -1.77636e-15 -27.8839 0 0 0 0 0 0
1645 3 C 197 5.82721 -4.32558 -30.0377 0 0 0 0 0 0
1646 3 C 197 8.32459 -5.76745 -30.0377 0 0 0 0 0 0
1647 3 C 197 5.82721 -7.20931 -30.0377 0 0 0 0 0 0
1648 3 C 197 8.32459 -2.88372 -30.0377 0 0 0 0 0 0
1649 3 C 197 7.49213 -1.44186 -27.8839 0 0 0 0 0 0
1650 3 C 197 9.98951 -2.88372 -27.8839 0 0 0 0 0 0
1651 3 C 197 7.49213 -4.32558 -27.8839 0 0 0 0 0 0
1652 3 C 197 9.98951 -1.77636e-15 -27.8839 0 0 0 0 0 0
1656 3 C 197 0.832459 -7.20931 -30.0377 0 0 0 0 0 0
1657 3 C 197 3.32984 -8.65117 -30.0377 0 0 0 0 0 0
1658 3 C 197 3.32984 -5.76745 -30.0377 0 0 0 0 0 0
1659 3 C 197 2.49738 -4.32558 -27.8839 0 0 0 0 0 0
1660 3 C 197 4.99475 -5.76745 -27.8839 0 0 0 0 0 0
1661 3 C 197 2.49738 -7.20931 -27.8839 0 0 0 0 0 0
1662 3 C 197 4.99475 -2.88372 -27.8839 0 0 0 0 0 0
1713 3 C 197 8.32459 -8.65117 -30.0377 0 0 0 0 0 0
1714 3 C 197 7.49213 -7.20931 -27.8839 0 0 0 0 0 0
1715 3 C 197 9.98951 -8.65117 -27.8839 0 0 0 0 0 0
1716 3 C 197 9.98951 -5.76745 -27.8839 0 0 0 0 0 0
1719 3 C 197 4.99475 -8.65117 -27.8839 0 0 0 0 0 0
1595 3 C 197 1.66492 -1.77636e-15 -25.7302 0 0 0 0 0 0
1654 3 C 197 9.15705 -1.44186 -25.7302 0 0 0 0 0 0
1663 3 C 197 4.1623 -1.44186 -25.7302 0 0 0 0 0 0
1664 3 C 197 6.65967 -2.88372 -25.7302 0 0 0 0 0 0
1665 3 C 197 4.1623 -4.32558 -25.7302 0 0 0 0 0 0
1666 3 C 197 6.65967 -1.77636e-15 -25.7302 0 0 0 0 0 0
1680 3 C 197 1.66492 -5.76745 -25.7302 0 0 0 0 0 0
1682 3 C 197 1.66492 -2.88372 -25.7302 0 0 0 0 0 0
1717 3 C 197 9.15705 -4.32558 -25.7302 0 0 0 0 0 0
1718 3 C 197 9.15705 -7.20931 -25.7302 0 0 0 0 0 0
1720 3 C 197 4.1623 -7.20931 -25.7302 0 0 0 0 0 0
1721 3 C 197 6.65967 -8.65117 -25.7302 0 0 0 0 0 0
1722 3 C 197 6.65967 -5.76745 -25.7302 0 0 0 0 0 0
1731 3 C 197 1.66492 -8.65117 -25.7302 0 0 0 0 0 0
1480 3 C 197 1.66492 -1.77636e-15 -32.1914 0 0 0 0 0 0
1546 3 C 197 9.15705 -1.44186 -32.1914 0 0 0 0 0 0
1547 3 C 197 4.1623 -1.44186 -32.1914 0 0 0 0 0 0
1548 3 C 197 6.65967 -2.88372 -32.1914 0 0 0 0 0 0
1549 3 C 197 4.1623 -4.32558 -32.1914 0 0 0 0 0 0
1550 3 C 197 6.65967 -1.77636e-15 -32.1914 0 0 0 0 0 0
1562 3 C 197 1.66492 -5.76745 -32.1914 0 0 0 0 0 0
1564 3 C 197 1.66492 -2.88372 -32.1914 0 0 0 0 0 0
1640 3 C 197 9.15705 -4.32558 -32.1914 0 0 0 0 0 0
1641 3 C 197 9.15705 -7.20931 -32.1914 0 0 0 0 0 0
1642 3 C 197 4.1623 -7.20931 -32.1914 0 0 0 0 0 0
1643 3 C 197 6.65967 -8.65117 -32.1914 0 0 0 0 0 0
1644 3 C 197 6.65967 -5.76745 -32.1914 0 0 0 0 0 0
1655 3 C 197 1.66492 -8.65117 -32.1914 0 0 0 0 0 0
1427 3 C 197 -6.65967 8.65117 -30.0377 0 0 0 0 0 0
1428 3 C 197 -9.15705 7.20931 -30.0377 0 0 0 0 0 0
1429 3 C 197 -9.98951 8.65117 -27.8839 0 0 0 0 0 0
1442 3 C 197 -4.1623 7.20931 -30.0377 0 0 0 0 0 0
1443 3 C 197 -1.66492 5.76745 -30.0377 0 0 0 0 0 0
1444 3 C 197 -4.1623 4.32558 -30.0377 0 0 0 0 0 0
1445 3 C 197 -1.66492 8.65117 -30.0377 0 0 0 0 0 0
1446 3 C 197 -1.77636e-15 8.65117 -27.8839 0 0 0 0 0 0
1447 3 C 197 -2.49738 7.20931 -27.8839 0 0 0 0 0 0
1450 3 C 197 -9.15705 4.32558 -30.0377 0 0 0 0 0 0
1451 3 C 197 -6.65967 2.88372 -30.0377 0 0 0 0 0 0
1452 3 C 197 -9.15705 1.44186 -30.0377 0 0 0 0 0 0
1453 3 C 197 -6.65967 5.76745 -30.0377 0 0 0 0 0 0
1454 3 C 197 -7.49213 7.20931 -27.8839 0 0 0 0 0 0
1455 3 C 197 -4.99475 5.76745 -27.8839 0 0 0 0 0 0
1456 3 C 197 -7.49213 4.32558 -27.8839 0 0 0 0 0 0
1457 3 C 197 -4.99475 8.65117 -27.8839 0 0 0 0 0 0
1460 3 C 197 -9.98951 2.88372 -27.8839 0 0 0 0 0 0
1461 3 C 197 -9.98951 5.76745 -27.8839 0 0 0 0 0 0
1497 3 C 197 -4.1623 1.44186 -30.0377 0 0 0 0 0 0
1500 3 C 197 -1.66492 2.88372 -30.0377 0 0 0 0 0 0
1501 3 C 197 -2.49738 4.32558 -27.8839 0 0 0 0 0 0
1502 3 C 197 -1.77636e-15 2.88372 -27.8839 0 0 0 0 0 0
1503 3 C 197 -2.49738 1.44186 -27.8839 0 0 0 0 0 0
1504 3 C 197 -1.77636e-15 5.76745 -27.8839 0 0 0 0 0 0
1517 3 C 197 -7.49213 1.44186 -27.8839 0 0 0 0 0 0
1520 3 C 197 -4.99475 2.88372 -27.8839 0 0 0 0 0 0
1458 3 C 197 -3.32984 8.65117 -25.7302 0 0 0 0 0 0
1459 3 C 197 -5.82721 7.20931 -25.7302 0 0 0 0 0 0
1462 3 C 197 -8.32459 5.76745 -25.7302 0 0 0 0 0 0
1463 3 C 197 -8.32459 8.65117 -25.7302 0 0 0 0 0 0
1505 3 C 197 -0.832459 7.20931 -25.7302 0 0 0 0 0 0
1507 3 C 197 -0.832459 4.32558 -25.7302 0 0 0 0 0 0
1521 3 C 197 -5.82721 4.32558 -25.7302 0 0 0 0 0 0
1522 3 C 197 -3.32984 2.88372 -25.7302 0 0 0 0 0 0
1523 3 C 197 -5.82721 1.44186 -25.7302 0 0 0 0 0 0
1524 3 C 197 -3.32984 5.76745 -25.7302 0 0 0 0 0 0
1534 3 C 197 -8.32459 2.88372 -25.7302 0 0 0 0 0 0
1594 3 C 197 -0.832459 1.44186 -25.7302 0 0 0 0 0 0
1423 3 C 197 -3.32984 8.65117 -32.1914 0 0 0 0 0 0
1424 3 C 197 -5.82721 7.20931 -32.1914 0 0 0 0 0 0
1425 3 C 197 -8.32459 5.76745 -32.1914 0 0 0 0 0 0
1426 3 C 197 -8.32459 8.65117 -32.1914 0 0 0 0 0 0
1432 3 C 197 -0.832459 7.20931 -32.1914 0 0 0 0 0 0
1434 3 C 197 -0.832459 4.32558 -32.1914 0 0 0 0 0 0
1438 3 C 197 -5.82721 4.32558 -32.1914 0 0 0 0 0 0
1439 3 C 197 -3.32984 2.88372 -32.1914 0 0 0 0 0 0
1440 3 C 197 -5.82721 1.44186 -32.1914 0 0 0 0 0 0
1441 3 C 197 -3.32984 5.76745 -32.1914 0 0 0 0 0 0
1449 3 C 197 -8.32459 2.88372 -32.1914 0 0 0 0 0 0
1479 3 C 197 -0.832459 1.44186 -32.1914 0 0 0 0 0 0
1436 3 C 197 3.32984 8.65117 -30.0377 0 0 0 0 0 0
1437 3 C 197 0.832459 7.20931 -30.0377 0 0 0 0 0 0
1473 3 C 197 5.82721 7.20931 -30.0377 0 0 0 0 0 0
1474 3 C 197 8.32459 5.76745 -30.0377 0 0 0 0 0 0
1475 3 C 197 5.82721 4.32558 -30.0377 0 0 0 0 0 0
1476 3 C 197 8.32459 8.65117 -30.0377 0 0 0 0 0 0
1477 3 C 197 9.98951 8.65117 -27.8839 0 0 0 0 0 0
1478 3 C 197 7.49213 7.20931 -27.8839 0 0 0 0 0 0
1483 3 C 197 0.832459 4.32558 -30.0377 0 0 0 0 0 0
1484 3 C 197 3.32984 2.88372 -30.0377 0 0 0 0 0 0
1485 3 C 197 0.832459 1.44186 -30.0377 0 0 0 0 0 0
1486 3 C 197 3.32984 5.76745 -30.0377 0 0 0 0 0 0
1487 3 C 197 2.49738 7.20931 -27.8839 0 0 0 0 0 0
1488 3 C 197 4.99475 5.76745 -27.8839 0 0 0 0 0 0
1489 3 C 197 2.49738 4.32558 -27.8839 0 0 0 0 0 0
1490 3 C 197 4.99475 8.65117 -27.8839 0 0 0 0 0 0
1551 3 C 197 5.82721 1.44186 -30.0377 0 0 0 0 0 0
1554 3 C 197 8.32459 2.88372 -30.0377 0 0 0 0 0 0
1555 3 C 197 7.49213 4.32558 -27.8839 0 0 0 0 0 0
1556 3 C 197 9.98951 2.88372 -27.8839 0 0 0 0 0 0
1557 3 C 197 7.49213 1.44186 -27.8839 0 0 0 0 0 0
1558 3 C 197 9.98951 5.76745 -27.8839 0 0 0 0 0 0
1569 3 C 197 2.49738 1.44186 -27.8839 0 0 0 0 0 0
1572 3 C 197 4.99475 2.88372 -27.8839 0 0 0 0 0 0
1491 3 C 197 6.65967 8.65117 -25.7302 0 0 0 0 0 0
1492 3 C 197 4.1623 7.20931 -25.7302 0 0 0 0 0 0
1506 3 C 197 1.66492 5.76745 -25.7302 0 0 0 0 0 0
1508 3 C 197 1.66492 8.65117 -25.7302 0 0 0 0 0 0
1559 3 C 197 9.15705 7.20931 -25.7302 0 0 0 0 0 0
1560 3 C 197 9.15705 4.32558 -25.7302 0 0 0 0 0 0
1573 3 C 197 4.1623 4.32558 -25.7302 0 0 0 0 0 0
1574 3 C 197 6.65967 2.88372 -25.7302 0 0 0 0 0 0
1575 3 C 197 4.1623 1.44186 -25.7302 0 0 0 0 0 0
1576 3 C 197 6.65967 5.76745 -25.7302 0 0 0 0 0 0
1597 3 C 197 1.66492 2.88372 -25.7302 0 0 0 0 0 0
1653 3 C 197 9.15705 1.44186 -25.7302 0 0 0 0 0 0
1430 3 C 197 6.65967 8.65117 -32.1914 0 0 0 0 0 0
1431 3 C 197 4.1623 7.20931 -32.1914 0 0 0 0 0 0
1433 3 C 197 1.66492 5.76745 -32.1914 0 0 0 0 0 0
1435 3 C 197 1.66492 8.65117 -32.1914 0 0 0 0 0 0
1467 3 C 197 9.15705 7.20931 -32.1914 0 0 0 0 0 0
1468 3 C 197 9.15705 4.32558 -32.1914 0 0 0 0 0 0
1469 3 C 197 4.1623 4.32558 -32.1914 0 0 0 0 0 0
1470 3 C 197 6.65967 2.88372 -32.1914 0 0 0 0 0 0
1471 3 C 197 4.1623 1.44186 -32.1914 0 0 0 0 0 0
1472 3 C 197 6.65967 5.76745 -32.1914 0 0 0 0 0 0
1482 3 C 197 1.66492 2.88372 -32.1914 0 0 0 0 0 0
1545 3 C 197 9.15705 1.44186 -32.1914 0 0 0 0 0 0
1619 3 C 197 -1.66492 -1.77636e-15 -23.5764 0 0 0 0 0 0
1620 3 C 197 -4.1623 -1.44186 -23.5764 0 0 0 0 0 0
1630 3 C 197 -9.15705 -1.44186 -23.5764 0 0 0 0 0 0
1631 3 C 197 -6.65967 -2.88372 -23.5764 0 0 0 0 0 0
1632 3 C 197 -9.15705 -4.32558 -23.5764 0 0 0 0 0 0
1633 3 C 197 -6.65967 -1.77636e-15 -23.5764 0 0 0 0 0 0
1695 3 C 197 -4.1623 -4.32558 -23.5764 0 0 0 0 0 0
1696 3 C 197 -1.66492 -5.76745 -23.5764 0 0 0 0 0 0
1697 3 C 197 -4.1623 -7.20931 -23.5764 0 0 0 0 0 0
1698 3 C 197 -1.66492 -2.88372 -23.5764 0 0 0 0 0 0
1704 3 C 197 -9.15705 -7.20931 -23.5764 0 0 0 0 0 0
1705 3 C 197 -6.65967 -8.65117 -23.5764 0 0 0 0 0 0
1706 3 C 197 -6.65967 -5.76745 -23.5764 0 0 0 0 0 0
1739 3 C 197 -1.66492 -8.65117 -23.5764 0 0 0 0 0 0
1635 3 C 197 -4.99475 -1.77636e-15 -21.4227 0 0 0 0 0 0
1636 3 C 197 -7.49213 -1.44186 -21.4227 0 0 0 0 0 0
1638 3 C 197 -9.98951 -2.88372 -21.4227 0 0 0 0 0 0
1639 3 C 197 -9.98951 -1.77636e-15 -21.4227 0 0 0 0 0 0
1699 3 C 197 -2.49738 -1.44186 -21.4227 0 0 0 0 0 0
1701 3 C 197 -2.49738 -4.32558 -21.4227 0 0 0 0 0 0
1707 3 C 197 -7.49213 -4.32558 -21.4227 0 0 0 0 0 0
1708 3 C 197 -4.99475 -5.76745 -21.4227 0 0 0 0 0 0
1709 3 C 197 -7.49213 -7.20931 -21.4227 0 0 0 0 0 0
1710 3 C 197 -4.99475 -2.88372 -21.4227 0 0 0 0 0 0
1711 3 C 197 -9.98951 -8.65117 -21.4227 0 0 0 0 0 0
1712 3 C 197 -9.98951 -5.76745 -21.4227 0 0 0 0 0 0
1740 3 C 197 -2.49738 -7.20931 -21.4227 0 0 0 0 0 0
1743 3 C 197 -4.99475 -8.65117 -21.4227 0 0 0 0 0 0
210 1 C 1.008 -2.58121 -3.80003 -18.3181 -0.000909905 -0.00995699 -0.0145593 0 0 0
208 2 C 15.999 -3.46167 -4.12257 -18.1258 0.000778789 -0.00220987 0.00611599 0 0 0
209 1 C 1.008 -3.65819 -3.7787 -17.2543 0.0258064 -0.00369197 0.0122861 0 0 0
316 2 C 15.999 -3.39658 -6.98398 -18.2494 0.00168746 0.00032363 -0.000139699 1 0 0
317 1 C 1.008 -4.32831 -7.09719 -18.4372 0.00317544 0.0160992 -0.0170205 1 0 0
318 1 C 1.008 -3.21851 -6.0678 -18.4618 0.0226721 -0.00461735 -0.00386007 1 0 0
361 2 C 15.999 -5.77328 -5.3352 -18.4045 0.00133581 0.000840024 0.00201524 0 0 0
363 1 C 1.008 -4.98165 -4.84792 -18.1762 0.0195077 -0.0325628 0.0102178 0 0 0
362 1 C 1.008 -6.2771 -5.36905 -17.5912 0.0119236 -0.0162743 0.00784553 0 0 0
228 1 C 1.008 -9.63174 -7.15618 -18.9533 -0.00141582 -0.00650218 -0.00141208 0 0 0
226 2 C 15.999 -8.74776 -6.99736 -18.6222 -0.00471285 0.00557173 0.0015594 0 0 0
301 2 C 15.999 -9.0932 -3.98704 -18.4034 0.000143076 -0.000313773 4.77724e-05 0 0 0
303 1 C 1.008 -8.2706 -4.24957 -18.8165 -0.000897385 0.00314699 -0.00420449 0 0 0
302 1 C 1.008 -8.98395 -3.05333 -18.2232 -0.00484237 0.0012874 -0.00523025 0 0 0
606 1 C 1.008 -0.182858 -7.6333 -17.9996 0.0101129 0.0103113 0.0128542 0 0 0
892 2 C 15.999 -5.92622 -2.06398 -18.8214 0.00321577 -0.00401962 -0.0014694 0 0 0
227 1 C 1.008 -8.84182 -6.24488 -18.0381 -0.0166308 0.00546122 -0.000257728 0 0 0
604 2 C 15.999 -0.755335 -6.90771 -17.7505 -0.00453653 0.00198289 0.00349436 0 0 0
605 1 C 1.008 -1.62598 -7.30019 -17.686 0.0060479 -0.018159 0.0245543 0 0 0
894 1 C 1.008 -5.43916 -2.66163 -18.254 0.0228869 0.012802 -0.00064084 0 0 0
893 1 C 1.008 -5.57127 -2.22087 -19.6964 0.00662682 0.00458016 -0.00158607 0 0 0
597 1 C 1.008 -6.54009 -7.47093 -18.7085 0.000312655 0.00616936 -0.00896475 0 0 0
596 1 C 1.008 -6.5778 -8.84195 -19.3494 0.012468 0.00519191 -0.00755232 0 0 0
595 2 C 15.999 -6.08842 -8.31481 -18.7178 -0.00266628 0.00444435 0.00478354 0 0 0
508 2 C 15.999 -7.36623 -4.5566 -16.1885 -0.00294109 0.00517367 0.00461559 0 -1 0
182 1 C 1.008 -2.65596 -0.895241 -19.4091 -0.00634837 -0.0132292 0.00765019 0 0 0
564 1 C 1.008 -0.552258 -2.92245 -19.2464 -0.00551825 -0.00684835 0.00379318 0 0 0
695 1 C 1.008 -0.928389 9.45806 -19.1665 0.0179274 0.0044483 -0.0148819 0 0 0
661 2 C 15.999 -6.7376 -7.90446 -16.1587 0.00221864 -0.00161532 -0.0095852 1 0 0
663 1 C 1.008 -6.82324 -7.78389 -17.1044 0.00890427 0.0350127 -0.00550434 1 0 0
662 1 C 1.008 -6.15679 -8.65947 -16.0646 0.0128642 0.00341173 -0.0346614 1 0 0
503 1 C 1.008 -8.92444 -1.33895 -16.3573 2.7871e-06 -0.0178885 -0.0179421 2 -1 0
477 1 C 1.008 2.39821 -5.21561 -15.1285 -0.000455041 -0.00262574 -0.00385792 1 0 0
613 2 C 15.999 -4.04688 -2.36864 -15.9953 0.000265668 -0.00208538 0.00223841 0 -1 0
533 1 C 1.008 8.76269 -6.49813 -18.8203 0.0163959 -0.00482305 0.00324995 0 0 0
562 2 C 15.999 -1.0295 -2.68245 -18.452 -0.000621011 0.00351281 0.00356405 0 0 0
694 2 C 15.999 -0.709563 9.59586 -18.2448 -0.00393326 -0.0023891 -0.00873317 0 0 0
311 1 C 1.008 -2.91753 -9.96848 -21.5621 -0.00393913 -0.0187933 0.00304194 0 1 0
1380 1 C 1.008 -3.72054 -9.2781 -18.2568 0.00472799 -0.00351086 0.013871 0 1 0
509 1 C 1.008 -7.44938 -4.2471 -15.2865 -0.0065981 0.0235722 -0.0020683 0 -1 0
510 1 C 1.008 -8.26063 -4.54587 -16.5294 -0.00135703 -0.000278648 0.000286287 0 -1 0
696 1 C 1.008 0.152951 -9.96942 -18.2624 -0.0129856 0.0174298 0.0141128 0 1 0
430 2 C 15.999 -9.95223 0.71862 -16.3245 -0.00799567 0.000528393 -0.00147107 1 -1 0
432 1 C 1.008 -9.70846 0.819723 -17.2446 0.0203151 0.00805303 0.00694506 1 -1 0
216 1 C 1.008 8.15693 -4.42487 -18.2432 0.00910621 -0.00346738 0.0117462 -1 0 0
532 2 C 15.999 8.74454 -7.45398 -18.8678 -0.00615538 -0.00423943 5.68914e-05 0 0 0
563 1 C 1.008 -0.443048 -2.92765 -17.7363 0.00472284 0.014902 0.00304311 0 0 0
534 1 C 1.008 7.87047 -7.66129 -19.1983 -0.0111716 0.0174719 -0.000297304 0 0 0
1668 3 C 197 8.32459 -1.77636e-15 -23.5764 0 0 0 0 0 0
1669 3 C 197 5.82721 -1.44186 -23.5764 0 0 0 0 0 0
1683 3 C 197 0.832459 -1.44186 -23.5764 0 0 0 0 0 0
1684 3 C 197 3.32984 -2.88372 -23.5764 0 0 0 0 0 0
1685 3 C 197 0.832459 -4.32558 -23.5764 0 0 0 0 0 0
1686 3 C 197 3.32984 -1.77636e-15 -23.5764 0 0 0 0 0 0
1723 3 C 197 5.82721 -4.32558 -23.5764 0 0 0 0 0 0
1724 3 C 197 8.32459 -5.76745 -23.5764 0 0 0 0 0 0
1725 3 C 197 5.82721 -7.20931 -23.5764 0 0 0 0 0 0
1726 3 C 197 8.32459 -2.88372 -23.5764 0 0 0 0 0 0
1732 3 C 197 0.832459 -7.20931 -23.5764 0 0 0 0 0 0
1733 3 C 197 3.32984 -8.65117 -23.5764 0 0 0 0 0 0
1734 3 C 197 3.32984 -5.76745 -23.5764 0 0 0 0 0 0
1744 3 C 197 8.32459 -8.65117 -23.5764 0 0 0 0 0 0
412 2 C 15.999 8.90419 -1.28917 -18.4621 -0.00110853 0.000335134 -0.000630361 -1 0 0
414 1 C 1.008 9.76368 -1.4399 -18.8556 0.00193246 -0.00279347 0.00723826 -1 0 0
384 1 C 1.008 4.50796 -7.32028 -18.1042 0.00752257 0.00792152 -0.011195 0 0 0
215 1 C 1.008 9.53098 -4.35497 -18.8749 0.000988742 -0.0123485 -0.00687158 -1 0 0
1688 3 C 197 4.99475 -1.77636e-15 -21.4227 0 0 0 0 0 0
1689 3 C 197 2.49738 -1.44186 -21.4227 0 0 0 0 0 0
1700 3 C 197 1.77636e-15 -2.88372 -21.4227 0 0 0 0 0 0
1702 3 C 197 0 -1.77636e-15 -21.4227 0 0 0 0 0 0
1727 3 C 197 7.49213 -1.44186 -21.4227 0 0 0 0 0 0
1728 3 C 197 9.98951 -2.88372 -21.4227 0 0 0 0 0 0
1729 3 C 197 7.49213 -4.32558 -21.4227 0 0 0 0 0 0
1730 3 C 197 9.98951 -1.77636e-15 -21.4227 0 0 0 0 0 0
1735 3 C 197 2.49738 -4.32558 -21.4227 0 0 0 0 0 0
1736 3 C 197 4.99475 -5.76745 -21.4227 0 0 0 0 0 0
1737 3 C 197 2.49738 -7.20931 -21.4227 0 0 0 0 0 0
1738 3 C 197 4.99475 -2.88372 -21.4227 0 0 0 0 0 0
1741 3 C 197 0 -8.65117 -21.4227 0 0 0 0 0 0
1742 3 C 197 1.77636e-15 -5.76745 -21.4227 0 0 0 0 0 0
1745 3 C 197 7.49213 -7.20931 -21.4227 0 0 0 0 0 0
1746 3 C 197 9.98951 -8.65117 -21.4227 0 0 0 0 0 0
1747 3 C 197 9.98951 -5.76745 -21.4227 0 0 0 0 0 0
1748 3 C 197 4.99475 -8.65117 -21.4227 0 0 0 0 0 0
39 1 C 1.008 5.57947 -5.11524 -18.1577 -0.00449511 -0.00144931 -0.0108372 0 0 0
258 1 C 1.008 3.8181 -2.9996 -18.6984 -0.00258423 0.000801341 -0.00429328 0 0 0
256 2 C 15.999 2.97204 -2.79569 -18.2998 -0.000277241 0.0033859 -0.000742147 0 0 0
257 1 C 1.008 2.94646 -3.32859 -17.505 -0.00203264 -0.00269271 -0.00491934 0 0 0
383 1 C 1.008 3.06202 -7.11187 -18.5014 0.00353237 -0.00511274 -0.00343043 0 0 0
37 2 C 15.999 5.8739 -4.3272 -18.6144 -0.00490191 0.005505 0.00093844 0 0 0
38 1 C 1.008 6.0941 -4.62874 -19.4959 -0.0125695 0.0202542 -0.00597066 0 0 0
382 2 C 15.999 3.93804 -6.7421 -18.6113 -0.00145001 0.00701029 -0.00210035 0 0 0
332 1 C 1.008 1.69016 -5.16807 -18.5965 -0.00429725 -0.0190935 0.0338602 0 0 0
333 1 C 1.008 0.252749 -5.35601 -18.1601 -0.0165562 0.0205576 0.0106797 0 0 0
32 1 C 1.008 1.98526 -9.2848 -18.8539 -0.000644858 -0.00684669 0.0100862 0 0 0
31 2 C 15.999 1.82457 -8.47615 -18.3675 -0.00356579 -0.00214648 0.0012971 0 0 0
214 2 C 15.999 8.70773 -4.84238 -18.9055 -0.00535356 -0.00196795 -0.00119512 -1 0 0
331 2 C 15.999 0.933019 -4.68983 -18.2585 -0.00582259 0.00706869 -0.00642283 0 0 0
33 1 C 1.008 2.04973 -8.69162 -17.4624 0.0107401 0.0125664 0.00123241 0 0 0
348 1 C 1.008 7.96161 -2.22805 -15.5355 0.0020561 0.00534884 0.0187372 0 0 0
346 2 C 15.999 8.24221 -3.12563 -15.357 -0.00311501 0.000704253 0.00340733 0 0 0
347 1 C 1.008 9.17283 -3.13513 -15.5808 -0.00209279 0.000363019 0.00769778 0 0 0
670 2 C 15.999 6.22962 -1.77919 -18.0684 0.00262309 -0.00235582 -0.00302434 0 0 0
672 1 C 1.008 6.01562 -2.71196 -18.0879 -0.00537077 -0.000368856 -0.00987674 0 0 0
387 1 C 1.008 2.65705 -0.921707 -18.7212 -0.00151174 -0.00256947 0.0133139 0 0 0
671 1 C 1.008 7.17476 -1.74666 -18.2163 0.00466121 -0.00999743 0.00818696 0 0 0
413 1 C 1.008 8.90069 -0.357426 -18.2428 0.0026009 -0.000927601 0.00484284 -1 0 0
966 1 C 1.008 6.27957 -7.53589 -17.3115 -0.00305207 -0.02644 0.000565486 0 0 0
1316 1 C 1.008 6.49282 -9.31779 -19.4237 -0.00712871 -0.00419637 -0.00634166 0 1 0
488 1 C 1.008 2.07037 8.70962 -18.105 -0.0116508 0.00586659 0.00871893 0 -1 0
176 1 C 1.008 6.92439 -0.8344 -16.6094 -0.0066074 -0.00271557 0.00260037 -1 -1 0
599 1 C 1.008 -0.598157 -2.96281 -15.1673 0.00262673 -0.00388898 -0.00467857 0 0 0
323 1 C 1.008 -9.86623 -9.7791 -18.5468 -0.0125006 0.0141633 0.019794 0 1 0
1315 2 C 15.999 6.18098 -8.71295 -18.7505 0.00246291 -0.00755504 0.00105886 0 1 0
1317 1 C 1.008 5.75877 -9.27443 -18.1003 -0.0135065 -0.00810518 -0.00982896 0 1 0
487 2 C 15.999 1.96858 8.83722 -19.0483 0.00443069 0.000418835 0.0063031 0 -1 0
283 2 C 15.999 4.21839 9.9349 -15.8831 -0.00166061 -0.0017879 0.00591291 0 -1 0
285 1 C 1.008 4.42505 -9.12641 -15.7113 0.00939002 -0.00518624 0.0107267 0 0 0
284 1 C 1.008 4.78229 9.69559 -16.6187 -0.0182166 0.000664257 -0.00754267 0 -1 0
1314 1 C 1.008 10.0661 -0.306495 -14.7284 0.0155362 -0.0162616 0.0143043 0 0 0
989 1 C 1.008 1.5614 -9.51123 -15.7533 0.0098367 -0.0117184 0.0208023 0 0 0
988 2 C 15.999 1.15777 9.82111 -16.3311 0.00626195 0.00439455 0.00530957 0 -1 0
628 2 C 15.999 -7.4368 9.94124 -20.1736 -0.00166183 -0.00144295 0.00310199 0 0 0
324 1 C 1.008 8.91572 -9.23475 -18.6832 -0.0122005 0.00130398 -0.0348102 -1 1 0
629 1 C 1.008 -7.8137 -9.65445 -20.9652 -0.0170924 -0.0110036 0.00587631 0 1 0
457 2 C 15.999 -8.54019 -1.10435 -18.6996 0.00130836 -0.00212249 -0.00152834 0 0 0
458 1 C 1.008 -8.57293 -0.147838 -18.6837 -0.0078857 -0.00226229 -0.011973 0 0 0
322 2 C 15.999 9.4454 9.966 -18.8518 -0.00172481 0.00118268 -0.00126157 -1 0 0
459 1 C 1.008 -7.60645 -1.31302 -18.6709 0.00377055 0.00738704 -0.0123585 0 0 0
183 1 C 1.008 -2.78986 -1.00849 -17.9053 -0.0133112 0.00740797 0.00849937 0 0 0
310 2 C 15.999 -2.51366 9.96355 -20.6955 -0.000649825 0.00140778 0.00258242 0 0 0
181 2 C 15.999 -2.82612 -0.376158 -18.623 -0.00184815 -0.00101685 0.000522618 0 0 0
630 1 C 1.008 -8.05701 9.25771 -19.9199 -0.00454936 0.012106 0.0322612 0 0 0
1464 3 C 197 -6.65967 8.65117 -23.5764 0 0 0 0 0 0
1465 3 C 197 -9.15705 7.20931 -23.5764 0 0 0 0 0 0
1525 3 C 197 -4.1623 7.20931 -23.5764 0 0 0 0 0 0
1526 3 C 197 -1.66492 5.76745 -23.5764 0 0 0 0 0 0
1527 3 C 197 -4.1623 4.32558 -23.5764 0 0 0 0 0 0
1528 3 C 197 -1.66492 8.65117 -23.5764 0 0 0 0 0 0
1535 3 C 197 -9.15705 4.32558 -23.5764 0 0 0 0 0 0
1536 3 C 197 -6.65967 2.88372 -23.5764 0 0 0 0 0 0
1537 3 C 197 -9.15705 1.44186 -23.5764 0 0 0 0 0 0
1538 3 C 197 -6.65967 5.76745 -23.5764 0 0 0 0 0 0
1618 3 C 197 -4.1623 1.44186 -23.5764 0 0 0 0 0 0
1621 3 C 197 -1.66492 2.88372 -23.5764 0 0 0 0 0 0
326 1 C 1.008 -5.48088 0.0725953 -18.5173 -0.0175888 0.00217113 -0.0100139 0 0 0
85 2 C 15.999 -8.42522 8.64887 -18.2239 0.00316958 -0.00115127 -0.000940615 1 -1 0
312 1 C 1.008 -3.23666 -9.87077 -20.0853 -0.000162145 0.00534871 0.00218823 0 1 0
86 1 C 1.008 -8.69655 8.35107 -17.3555 0.0137743 -0.00637633 0.000526561 1 -1 0
87 1 C 1.008 -7.67225 8.09944 -18.4416 0.0127194 0.0135774 -0.00504498 1 -1 0
372 1 C 1.008 -8.66173 5.10266 -17.8702 0.00703845 -0.00588739 0.00715317 0 0 0
370 2 C 15.999 -8.38129 4.63547 -18.6572 0.00360586 -0.002098 0.00372075 0 0 0
371 1 C 1.008 -7.46961 4.40031 -18.4846 0.0087971 0.00986077 -0.00743667 0 0 0
439 2 C 15.999 -6.40524 6.46499 -18.332 0.00236787 0.00366625 -0.00176484 0 -1 0
440 1 C 1.008 -5.49034 6.74446 -18.2991 0.000847099 0.00936118 -0.00784926 0 -1 0
397 2 C 15.999 -2.68179 5.14475 -16.5515 -0.00177305 0.00941728 0.0036264 0 0 0
398 1 C 1.008 -2.9525 5.90228 -17.0702 0.0157328 0.0100185 -0.00459751 0 0 0
1466 3 C 197 -9.98951 8.65117 -21.4227 0 0 0 0 0 0
1530 3 C 197 -2.49738 7.20931 -21.4227 0 0 0 0 0 0
1539 3 C 197 -7.49213 7.20931 -21.4227 0 0 0 0 0 0
1540 3 C 197 -4.99475 5.76745 -21.4227 0 0 0 0 0 0
1541 3 C 197 -7.49213 4.32558 -21.4227 0 0 0 0 0 0
1542 3 C 197 -4.99475 8.65117 -21.4227 0 0 0 0 0 0
1543 3 C 197 -9.98951 2.88372 -21.4227 0 0 0 0 0 0
1544 3 C 197 -9.98951 5.76745 -21.4227 0 0 0 0 0 0
1622 3 C 197 -2.49738 4.32558 -21.4227 0 0 0 0 0 0
1624 3 C 197 -2.49738 1.44186 -21.4227 0 0 0 0 0 0
1634 3 C 197 -7.49213 1.44186 -21.4227 0 0 0 0 0 0
1637 3 C 197 -4.99475 2.88372 -21.4227 0 0 0 0 0 0
327 1 C 1.008 -4.67947 1.32241 -18.2213 0.0103203 -0.0178642 -0.00109876 0 0 0
325 2 C 15.999 -5.53127 1.0281 -18.5439 0.00175622 0.00351393 0.00209606 0 0 0
698 1 C 1.008 -8.85298 2.67118 -18.5375 0.0248365 0.000112269 -0.00783132 0 0 0
697 2 C 15.999 -8.61015 1.74654 -18.5856 0.00741961 -0.00457225 -0.00557797 0 0 0
59 1 C 1.008 -5.74915 2.70442 -18.8895 -0.00176811 -0.00358298 0.0211269 0 -1 0
60 1 C 1.008 -5.05054 4.00275 -19.2333 0.010751 -0.012976 0.0111753 0 -1 0
58 2 C 15.999 -5.80123 3.65069 -18.755 0.000228378 -0.000984087 0.00341824 0 -1 0
399 1 C 1.008 -2.16778 4.61055 -17.157 -0.0297113 -0.0181963 0.0042498 0 0 0
699 1 C 1.008 -7.79321 1.73856 -19.0844 0.0200262 -0.0189209 0.0153803 0 0 0
441 1 C 1.008 -6.40389 5.70754 -18.9173 0.000687072 0.0133402 -0.0142507 0 -1 0
3 1 C 1.008 -2.56893 7.1591 -18.4476 -0.000623171 -0.0157031 0.0154698 0 0 0
1 2 C 15.999 -3.52408 7.21949 -18.4308 -0.000290079 -0.00834595 0.00782303 0 0 0
2 1 C 1.008 -3.7141 8.10452 -18.742 0.00986063 0.000806278 0.0277542 0 0 0
156 1 C 1.008 -2.3488 3.11974 -18.7489 -0.0168575 -0.0080181 -0.0419148 0 0 0
154 2 C 15.999 -2.88319 2.42061 -18.3722 0.00617994 -0.00629345 -0.00586213 0 0 0
155 1 C 1.008 -2.45519 1.6125 -18.6551 0.00150637 -0.00735397 -0.0098888 0 0 0
1379 1 C 1.008 -5.10215 -9.83477 -18.5273 0.00285522 0.0144153 -0.0132227 0 1 0
1378 2 C 15.999 -4.17498 9.90756 -18.5374 0.000367491 0.004309 -0.00117078 0 0 0
485 1 C 1.008 -8.20944 2.89739 -15.2034 0.00587057 0.0135118 -0.000442976 1 0 0
666 1 C 1.008 0.723815 0.837585 -15.6415 -0.00399979 -0.020328 0.0200646 0 0 0
619 2 C 15.999 -1.0477 4.36453 -18.6642 0.00241968 -0.00527194 0.000742388 0 0 0
147 1 C 1.008 -8.92064 6.17603 -15.7238 0.00902622 -0.00222825 -0.0143418 1 0 0
145 2 C 15.999 -9.51408 5.79348 -16.3702 0.000383587 -0.00119683 -0.0069975 1 0 0
158 1 C 1.008 -4.02559 2.26859 -16.4703 -0.00108305 -0.0065874 0.00987732 0 1 0
133 2 C 15.999 -5.79637 5.52072 -15.5335 0.000914343 -0.000183457 -0.00899539 0 -1 0
146 1 C 1.008 -9.55065 4.86455 -16.1422 0.0122188 -0.00359587 -0.014836 1 0 0
386 1 C 1.008 3.73454 0.0834966 -19.0683 0.00486364 -0.0119972 0.00583277 0 0 0
649 2 C 15.999 7.49829 -9.97601 -20.672 0.00333171 0.0127402 0.00157112 0 1 0
651 1 C 1.008 7.95785 -9.83428 -21.4996 -0.0183482 0.0124912 -0.0104519 0 1 0
385 2 C 15.999 2.864 0.0118013 -18.6768 0.000828556 -0.00239732 -0.00139047 0 0 0
225 1 C 1.008 7.92745 8.58392 -16.7467 -0.0511688 -0.0135324 -0.0293128 -1 -1 0
345 1 C 1.008 0.0758633 6.78928 -17.2112 -0.013373 -0.00150053 0.0119371 0 -1 0
343 2 C 15.999 -0.724267 7.0342 -17.676 -0.00230234 0.00389801 -0.00424295 0 -1 0
344 1 C 1.008 -0.778315 7.98467 -17.5763 -0.00201168 0.00333955 0.00130139 0 -1 0
11 1 C 1.008 -0.18006 1.83097 -17.6923 0.012695 0.00344303 0.0100635 1 0 0
392 1 C 1.008 9.05426 1.64957 -19.041 0.0135943 -0.0136541 0.0222092 -1 0 0
1509 3 C 197 3.32984 8.65117 -23.5764 0 0 0 0 0 0
1510 3 C 197 0.832459 7.20931 -23.5764 0 0 0 0 0 0
1577 3 C 197 5.82721 7.20931 -23.5764 0 0 0 0 0 0
1578 3 C 197 8.32459 5.76745 -23.5764 0 0 0 0 0 0
1579 3 C 197 5.82721 4.32558 -23.5764 0 0 0 0 0 0
1580 3 C 197 8.32459 8.65117 -23.5764 0 0 0 0 0 0
1598 3 C 197 0.832459 4.32558 -23.5764 0 0 0 0 0 0
1599 3 C 197 3.32984 2.88372 -23.5764 0 0 0 0 0 0
1600 3 C 197 0.832459 1.44186 -23.5764 0 0 0 0 0 0
1601 3 C 197 3.32984 5.76745 -23.5764 0 0 0 0 0 0
1667 3 C 197 5.82721 1.44186 -23.5764 0 0 0 0 0 0
1670 3 C 197 8.32459 2.88372 -23.5764 0 0 0 0 0 0
10 2 C 15.999 0.405209 1.72937 -18.4429 0.00453854 0.00396549 0.00368207 1 0 0
489 1 C 1.008 2.82909 8.63001 -19.4128 0.00366855 -0.026008 0.0196296 0 -1 0
621 1 C 1.008 -0.440443 3.96707 -19.2883 -0.0407826 -0.00424447 -0.0420205 0 0 0
393 1 C 1.008 8.43252 1.83926 -17.6737 -0.0116395 0.0145603 0.00675042 -1 0 0
263 1 C 1.008 8.82742 5.16611 -18.3262 -0.00272297 0.00255896 0.0103721 -1 0 0
12 1 C 1.008 0.82205 0.878214 -18.3087 0.0042365 0.00282232 -0.00267334 1 0 0
650 1 C 1.008 8.16382 9.64219 -20.0868 0.0148282 -0.00160223 -0.0204 0 0 0
360 1 C 1.008 9.63949 7.02655 -17.4767 0.0132099 0.00999744 -0.0055913 -1 0 0
245 1 C 1.008 3.29343 4.82452 -18.7962 -0.0107902 -0.00150408 0.0235752 0 -1 0
118 2 C 15.999 6.24522 6.18882 -18.9157 0.001531 -0.00277369 -0.00120732 0 -1 0
119 1 C 1.008 6.23082 5.2364 -18.8213 -0.00764543 -0.000247352 0.0226859 0 -1 0
120 1 C 1.008 7.16101 6.42997 -18.7764 0.00102036 -0.00648618 0.00864297 0 -1 0
78 1 C 1.008 6.68224 1.09218 -18.6892 0.00859888 -0.0037965 0.0253294 0 -1 0
264 1 C 1.008 10.0253 4.41555 -18.8681 0.00277947 0.00846829 0.0143878 -1 0 0
359 1 C 1.008 9.35683 8.27106 -18.2911 -0.00638168 -0.00352006 -0.0193669 -1 0 0
1529 3 C 197 0 8.65117 -21.4227 0 0 0 0 0 0
1581 3 C 197 9.98951 8.65117 -21.4227 0 0 0 0 0 0