1748
Atoms. Timestep: 2350
H 2.49533 0.136273 -15.9257
O 2.03129 0.738962 -15.3066
O 1.98992 -0.692724 -15.7897
H -0.671949 -0.259824 -7.47756
O 0.158073 -0.638583 -7.12829
O -0.938686 -0.93425 -8.14019
H -8.2091 -0.743745 -6.52166
O -8.00006 -1.5524 -6.01176
O -7.33146 -0.555597 -6.92416
H 3.88447 1.85851 -10.9469
O 3.79661 0.995015 -10.5049
O 4.17354 2.42048 -10.2025
H -5.60077 3.30525 -9.83997
O -5.68202 2.34969 -10.0666
O -4.64474 3.36422 -9.62602
H -7.90369 -3.25196 -15.3967
O -7.65212 -2.94406 -16.2897
O -8.86386 -3.0136 -15.3986
H -8.43462 0.120437 -10.0067
O -8.23175 -0.82065 -10.182
O -7.55996 0.526977 -10.1313
H 2.17852 6.38987 -9.48751
O 2.28905 5.59845 -8.93069
O 1.62984 6.95351 -8.91026
H -1.30624 2.38568 -7.7285
O -1.03448 1.43949 -7.74312
O -0.574246 2.74461 -7.18522
H 7.86915 -7.00013 -7.52957
O 7.6 -6.31712 -6.8771
O 8.07848 -6.45229 -8.31346
H 1.94407 -2.67439 -9.08403
O 2.05912 -3.64535 -9.01478
O 1.27571 -2.66706 -9.8009
H -3.47047 -6.56872 -11.2985
O -3.92822 -5.72464 -11.146
O -4.11886 -7.0229 -11.8883
H 3.2575 -5.0052 -13.9275
O 3.4527 -5.13504 -12.9749
O 4.1124 -4.66505 -14.266
H -7.96753 -2.55695 -10.323
O -7.3953 -3.09272 -9.739
O -7.75266 -2.93005 -11.1999
H -4.22997 -1.48974 -9.66071
O -3.28219 -1.6197 -9.43719
O -4.37794 -2.24888 -10.2508
H 7.07645 -5.17251 -5.64538
O 6.72598 -4.37459 -6.09652
O 7.72458 -4.80546 -5.014
H -6.43281 -6.10902 -6.62411
O -6.65246 -5.43657 -7.28906
O -7.00566 -5.85427 -5.86929
H 0.902292 1.66122 -14.2995
O 0.130671 1.09548 -14.5029
O 0.538646 2.55768 -14.4512
H -3.85742 1.56062 -7.02874
O -4.20494 2.36808 -6.58948
O -2.9894 1.89413 -7.3343
H 3.60827 -5.03155 -11.1162
O 2.91057 -5.30162 -10.487
O 4.38017 -5.00527 -10.5144
H -6.22908 -4.23711 -8.93167
O -5.83119 -3.78698 -8.1516
O -5.47373 -4.23709 -9.55091
H -4.70102 3.79768 -5.73306
O -4.64574 4.77717 -5.75438
O -5.64048 3.69908 -5.47656
H -8.79263 1.76562 -16.5431
O -8.90779 2.52504 -17.1512
O -7.94259 2.00781 -16.1188
H 4.67361 3.2547 -8.64828
O 3.86368 3.64949 -8.25695
O 5.28794 4.01448 -8.57123
H 5.80917 -8.73324 -6.9815
O 5.17799 -8.57917 -7.72393
O 6.55923 -8.17613 -7.28376
H -2.28776 -9.15362 -11.6224
O -2.84251 -9.87251 -11.25
O -2.75532 -8.35878 -11.3036
H 2.79142 5.36824 -14.1547
O 3.0021 4.4515 -13.8735
O 3.61129 5.81335 -13.8507
H 3.27692 2.75985 -13.4794
O 2.4507 2.24201 -13.5738
O 3.57847 2.45393 -12.5919
H 5.5655 1.67416 -5.09253
O 5.58521 1.31285 -6.00461
O 5.97176 2.55624 -5.23887
H 0.735224 -1.9294 -15.835
O -0.00920532 -1.29073 -15.8675
O 0.746898 -2.28608 -16.7487
H 1.07202 -3.07372 -18.3504
O 2.02023 -3.24579 -18.5184
O 0.694265 -3.97642 -18.3885
H 7.48563 -0.919595 -6.88457
O 6.86851 -0.205285 -7.16025
O 8.26598 -0.709211 -7.44042
H 5.20225 -0.10746 -15.9895
O 4.22862 0.000948328 -15.8929
O 5.41546 -0.641467 -15.1949
H 2.77718 -2.56527 -4.16525
O 2.71063 -1.73888 -3.63704
O 2.35279 -2.26631 -4.99897
H -5.68878 -1.18336 -12.6869
O -6.39262 -1.84583 -12.8014
O -4.91186 -1.70944 -12.9702
H -2.86069 3.77647 -9.54718
O -2.37483 3.55888 -10.3529
O -2.28853 3.35612 -8.86616
H -5.67433 -0.43426 -7.55335
O -5.21049 -0.769254 -8.34767
O -5.13712 0.362243 -7.35483
H 2.54005 4.51382 -7.42641
O 2.65217 5.28277 -6.83487
O 1.8487 3.99908 -6.95994
H -3.12198 3.53129 -3.46668
O -3.72809 4.1141 -2.95967
O -3.63733 3.44242 -4.29642
H 4.41026 -1.14906 -18.4528
O 4.82911 -0.923371 -17.601
O 4.15687 -0.254664 -18.7504
H -6.02611 -0.330189 -3.63967
O -6.13422 0.608232 -3.40715
O -6.95107 -0.639053 -3.59032
H 0.210323 4.36137 -14.7455
O 1.07633 4.69046 -14.4318
O -0.106436 5.16619 -15.2058
H -5.07484 5.42871 -2.7018
O -5.06778 5.87311 -3.57663
O -6.03326 5.40938 -2.50894
H 7.45566 -8.83082 -18.7619
O 6.53649 -8.49323 -18.7956
O 7.92391 -7.9753 -18.792
H -7.37522 -2.71719 -18.2048
O -7.60647 -1.79326 -18.4355
O -6.41284 -2.73602 -18.3771
H 8.99264 4.63192 -18.534
O 9.14331 5.5953 -18.6441
O 9.90149 4.3008 -18.4122
H -8.75584 1.59325 -5.09419
O -9.70618 1.60424 -4.88999
O -8.6469 0.746934 -5.57335
H -7.96403 3.79829 -8.27303
O -7.13123 3.53538 -8.70263
O -7.67998 4.4583 -7.61931
H 8.17986 5.76972 -2.29168
O 8.54406 4.87118 -2.1383
O 7.24714 5.64749 -2.0128
H -2.02784 5.95134 -4.86128
O -1.53445 6.47697 -4.19111
O -2.10214 5.09748 -4.40868
H -0.560916 6.57314 -16.1994
O -0.780943 6.12437 -17.0475
O -1.33435 7.13601 -16.0767
H -7.74618 6.31644 -12.3687
O -7.21334 6.23779 -11.5518
O -8.57307 5.8737 -12.0962
H 1.6284 5.72789 -18.6394
O 2.44651 5.23005 -18.8435
O 1.9153 6.21875 -17.8485
H 2.20157 7.05751 -16.2867
O 1.23023 7.05324 -16.1613
O 2.47813 6.48408 -15.5396
H 4.64546 -3.34956 -2.2823
O 4.05957 -3.06365 -3.01727
O 4.86071 -4.2654 -2.57266
H -7.19144 3.68357 -4.63833
O -6.76532 3.16129 -3.92067
O -7.82147 2.98641 -4.95718
H -6.55692 -8.75443 -7.38104
O -6.76584 -8.64984 -8.33205
O -6.39065 -7.81918 -7.134
H -0.434496 -7.89936 -5.49046
O -0.16942 -8.83739 -5.5381
O -1.30052 -7.97451 -5.04691
H 2.55521 -5.3298 -4.18818
O 2.14838 -5.59028 -3.33165
O 2.52971 -4.35181 -4.13884
H 3.90396 1.58476 -18.6028
O 4.04082 2.44601 -19.0353
O 3.84506 1.87724 -17.6714
H -0.0860064 -5.56738 -18.2872
O -0.588474 -5.77356 -17.4668
O -0.75162 -5.76375 -18.9582
H -5.30938 -2.99484 -6.6527
O -5.98137 -3.04371 -5.9381
O -5.31321 -2.02775 -6.81052
H -4.71231 -3.89948 -11.3063
O -5.56688 -3.92637 -11.7842
O -4.14343 -3.57476 -12.0379
H 0.989824 -3.44346 -13.5911
O 1.0001 -2.84112 -14.37
O 1.79192 -3.98237 -13.7617
H -0.215711 -3.18168 -2.70943
O -0.597782 -3.98166 -2.29136
O 0.610966 -3.09131 -2.19797
H 0.0577909 -3.32422 -10.9911
O 0.418981 -3.17319 -11.8916
O -0.219369 -4.26169 -11.0886
H -7.47788 -2.95768 -4.97198
O -7.87631 -2.4516 -4.23205
O -7.58396 -3.87815 -4.64858
H -4.62027 -5.70825 -18.2497
O -4.23056 -6.37349 -17.6536
O -5.34226 -6.24954 -18.6181
H 9.86097 -6.33128 -11.8146
O -9.46129 -6.11393 -11.4115
O -10.0244 -6.66451 -12.6872
H -8.63372 -5.71259 -16.375
O -9.14996 -5.19749 -17.0308
O -8.16681 -4.97568 -15.9361
H 1.4095 -1.8975 -6.49639
O 1.64451 -2.20041 -7.39923
O 0.671865 -2.49914 -6.25646
H -0.818135 -5.87322 -11.4513
O -1.72362 -6.21076 -11.2713
O -0.332476 -6.71235 -11.6203
H -7.12462 -3.68201 -12.7407
O -7.38368 -3.58074 -13.6879
O -7.52396 -4.54493 -12.5252
H -3.60309 -2.79186 -13.5769
O -2.85651 -3.41024 -13.7365
O -3.5511 -2.24167 -14.389
H 1.69408 -5.42316 -9.04636
O 1.53275 -5.58327 -8.08873
O 0.96185 -5.91777 -9.43505
H -4.60028 -2.99834 -18.2049
O -4.5861 -3.96427 -18.4057
O -4.31048 -3.01448 -17.2852
H 5.7675 8.69277 -1.82811
O 5.9201 8.72627 -2.79769
O 6.68282 8.81158 -1.50992
H -6.3636 2.20403 -2.46873
O -5.88859 1.82994 -1.7045
O -7.2106 2.43689 -2.04006
H -1.64525 -2.27944 -9.08175
O -1.07396 -2.6752 -9.77612
O -1.90573 -3.0591 -8.5479
H -5.10438 -7.97554 -12.9305
O -6.02829 -8.30559 -12.9058
O -4.76982 -8.38811 -13.7364
H -2.74649 -3.96859 -7.13918
O -3.54296 -3.47111 -6.85868
O -2.07494 -3.68334 -6.4836
H -3.63352 -1.0275 -15.7159
O -3.68974 -0.764863 -16.6594
O -4.08755 -0.272414 -15.2779
H 5.42531 0.757725 -7.71644
O 5.26491 1.6567 -8.0777
O 4.85967 0.232811 -8.32255
H 2.61305 -6.21524 -18.1803
O 1.66047 -6.06713 -18.3524
O 2.98425 -5.32129 -18.3523
H -0.431635 2.93794 -3.41695
O -0.390793 2.16983 -2.83055
O -1.3868 3.16193 -3.37784
H 3.79969 -3.78166 -18.5629
O 4.70912 -4.13184 -18.6371
O 3.9973 -2.81414 -18.581
H -5.71262 0.645785 -10.6097
O -5.84018 0.16014 -11.449
O -5.09068 0.0240978 -10.1824
H -1.12929 0.111162 -15.4356
O -1.47702 1.01324 -15.6097
O -1.95882 -0.403104 -15.4666
H -8.6654 -1.15026 -3.24337
O -8.73589 -0.725614 -2.36683
O -9.55708 -1.00613 -3.61944
H -1.92319 -0.987263 -2.12652
O -2.68597 -1.35597 -2.6229
O -1.22768 -1.60343 -2.43202
H 2.04211 4.11331 -3.02285
O 1.12045 3.82497 -3.18882
O 2.01077 4.22218 -2.0465
H 7.19155 -2.88791 -17.0562
O 6.89822 -3.53644 -17.7267
O 7.21831 -2.06163 -17.5769
H 8.90664 3.15537 -2.02954
O 8.18904 2.87226 -1.42504
O 8.71492 2.65167 -2.85687
H 6.54825 4.78429 -17.4284
O 6.55605 3.88297 -17.0426
O 7.40179 4.75286 -17.92
H 3.85854 -0.628261 -9.55958
O 3.12276 -1.21655 -9.29678
O 4.2516 -1.16762 -10.2772
H -4.85395 3.25766 -12.6954
O -4.93941 4.13035 -13.1303
O -5.26058 3.42452 -11.8342
H 9.77917 -1.64082 -18.5144
O -9.6931 -0.991883 -18.6469
O 8.97323 -1.09791 -18.6219
H -4.74155 0.938369 -14.1577
O -4.64939 1.74532 -13.5971
O -5.14868 0.310038 -13.5291
H -2.03266 7.22657 -7.27711
O -2.31284 8.04033 -6.8066
O -1.95577 6.61548 -6.51259
H -5.31008 5.82869 -13.7866
O -6.2153 6.06435 -13.5016
O -4.87275 6.71036 -13.765
H 0.772649 2.93901 -5.93271
O 0.254811 3.01149 -5.10588
O 1.50289 2.36989 -5.61359
H 3.92277 3.01699 -16.1796
O 4.886 2.8646 -16.0933
O 3.64588 2.93478 -15.2445
H 4.08538 5.50691 -4.14307
O 3.31842 5.03059 -3.75118
O 3.6276 6.07649 -4.80089
H 9.09188 7.35074 -18.5763
O 9.48873 8.21466 -18.7879
O 8.15556 7.61328 -18.4452
H -7.68749 -5.58211 -4.17505
O -8.3689 -5.52179 -3.47367
O -7.20733 -6.37608 -3.8564
H 6.51351 2.23101 -16.4174
O 6.07167 1.36298 -16.2746
O 7.44838 1.94103 -16.3434
H -7.79359 5.89137 -6.32089
O -7.60144 5.19178 -5.66851
O -7.80276 6.68336 -5.73951
H -6.17012 2.41665 -15.917
O -5.74226 1.78883 -15.2978
O -5.52162 3.15006 -15.8546
H -8.12939 -0.0306343 -18.5451
O -8.43416 0.462259 -17.7563
O -7.46285 0.601226 -18.8762
H 0.971541 -5.76315 -6.38546
O 1.64755 -5.76076 -5.67467
O 0.45163 -6.56345 -6.12993
H 2.32615 -7.1155 -15.5374
O 2.43951 -6.74623 -16.4373
O 2.63576 -6.36981 -14.9787
H -1.80451 2.72848 -15.7656
O -2.6774 3.18146 -15.7284
O -1.23243 3.39164 -15.3289
H -1.49018 -4.55209 -13.8171
O -0.625572 -4.08661 -13.8393
O -1.35834 -5.08646 -13.0092
H -0.541015 -3.5509 -5.51321
O -0.465625 -3.46249 -4.53949
O -0.104909 -4.40977 -5.68949
H -0.094524 -8.04826 -14.6062
O 0.13777 -8.11508 -13.6552
O 0.792812 -7.85362 -14.9826
H -4.13258 4.26893 -15.7614
O -4.11535 4.73391 -16.6271
O -4.51233 4.94486 -15.161
H -3.6578 -7.82924 -16.6975
O -3.50279 -8.49709 -16.008
O -2.89294 -7.23929 -16.5376
H 5.23441 -5.68094 -3.62362
O 4.327 -5.81125 -3.97025
O 5.7613 -5.65524 -4.44944
H 4.78095 -2.511 -11.3659
O 4.10197 -3.19423 -11.5162
O 5.35307 -3.00474 -10.7428
H -6.35852 2.15454 -18.5928
O -6.25804 2.20598 -17.617
O -5.41673 2.23972 -18.8504
H -9.68654 -4.21547 -18.4256
O 10.0573 -3.33371 -18.4429
O -8.77178 -3.88375 -18.5439
H 6.22919 5.50839 -8.1552
O 5.93889 6.33567 -8.59522
O 7.18479 5.70142 -8.05001
H -7.35347 -8.38991 -10.0603
O -7.29216 -8.54122 -11.0264
O -7.97615 -9.12532 -9.84471
H 8.66786 8.14068 -13.9729
O 7.95776 7.6575 -14.4397
O 9.27013 8.29393 -14.7383
H -8.82732 7.74498 -1.988
O -8.45233 7.84013 -1.08891
O -8.57291 6.81421 -2.16591
H -3.84893 6.65695 -0.585675
O -3.46019 5.86366 -0.172332
O -4.3109 6.22974 -1.33866
H -0.936802 2.43846 -18.3732
O -1.1041 2.42182 -17.4083
O -0.157544 1.84765 -18.4506
H 1.80158 4.41011 -0.316618
O 1.92179 3.64486 0.288195
O 2.53064 4.98345 -0.000265711
H 4.04054 4.4295 -18.5171
O 3.85433 4.0597 -17.6284
O 4.95178 4.75333 -18.3686
H -8.7371 2.8792 -1.21779
O -8.72536 1.92659 -0.969677
O -9.67075 2.96345 -1.5311
H -3.63809 2.22661 -18.6309
O -3.66756 1.2447 -18.585
O -2.6666 2.34369 -18.685
H -3.15546 1.47714 -1.43172
O -3.16877 1.93395 -2.29164
O -2.66448 0.652544 -1.64018
H 1.23891 0.738738 -18.3755
O 1.67165 0.509629 -17.5286
O 2.02805 1.01854 -18.8733
H 2.89184 1.8939 -4.44776
O 3.84021 1.89207 -4.70014
O 2.8146 2.71396 -3.91938
H -8.27071 0.203118 -0.711149
O -7.31968 0.195135 -0.499252
O -8.64261 -0.260098 0.0721682
H -3.46597 -0.487859 -18.4329
O -3.89317 -1.33849 -18.6626
O -2.51573 -0.716183 -18.5759
H -3.89356 -2.03426 -3.73153
O -4.71635 -1.49641 -3.65929
O -3.53972 -1.67297 -4.57752
H -0.82441 -1.11684 -18.5742
O -0.170441 -0.391365 -18.6175
O -0.224498 -1.88369 -18.6641
H 1.54315 0.479462 -0.503165
O 2.0252 0.139988 -1.28282
O 1.32286 -0.339396 -0.0232757
H -3.53859 -4.66929 -3.01433
O -3.7209 -5.12297 -3.86401
O -3.67047 -3.72923 -3.27576
H -3.91756 -5.94574 -5.45715
O -3.43917 -5.4546 -6.15326
O -4.7997 -6.03964 -5.87472
H -2.92649 -0.815153 -5.94776
O -2.05881 -0.691436 -6.37517
O -3.3782 -0.000729223 -6.24059
H 2.06501 -3.37012 -1.022
O 1.92365 -4.33597 -1.13937
O 3.00634 -3.29472 -1.25733
H 3.03508 -0.243333 -2.74167
O 2.84517 0.48838 -3.36862
O 3.99995 -0.123917 -2.6199
H -4.55807 -4.9217 -0.461814
O -5.45185 -5.31016 -0.574668
O -4.3021 -4.75753 -1.39456
H -2.99017 -8.3125 -4.36387
O -3.35984 -7.466 -4.69875
O -3.55949 -8.48576 -3.59167
H -1.26682 -5.56897 -1.68569
O -1.66444 -6.10131 -0.965449
O -2.07621 -5.33279 -2.18785
H 1.49221 -5.92766 -1.72347
O 0.512857 -5.99334 -1.68996
O 1.7631 -6.68171 -1.15334
H 2.30039 -7.96731 -0.0148954
O 2.50313 -8.86238 -0.355869
O 1.6313 -8.15741 0.681095
H -6.81169 -6.50213 -0.858741
O -6.72983 -7.06465 -1.65695
O -6.58762 -7.14472 -0.15227
H -1.79986 -9.49744 0.642576
O -1.99906 9.93008 -0.142558
O -2.16838 -8.63535 0.360989
H -3.7971 5.01938 -18.3777
O -2.86499 5.22926 -18.5805
O -3.84574 4.07886 -18.63
H -8.67664 3.55835 -18.6276
O -7.7555 3.21703 -18.6494
O -8.90685 3.49355 -19.563
H -10.0602 5.55471 -10.8941
O 9.94729 4.73294 -10.3957
O -9.69347 6.1081 -10.1784
H 8.8718 6.18495 -7.61245
O 8.72906 6.33249 -6.65104
O 9.58901 6.80699 -7.80973
H 8.05861 6.24635 -4.98659
O 7.51187 5.44694 -5.13995
O 8.30538 6.11476 -4.04655
H 7.21002 2.95874 0.132951
O 6.33962 3.15595 0.544277
O 7.76733 3.64719 0.554192
H 8.82748 0.857964 -16.3276
O 9.76811 1.14266 -16.3313
O 8.80092 0.28558 -15.5314
H 8.38964 -0.692416 -14.0801
O 7.45765 -0.999595 -14.012
O 8.56184 -0.406454 -13.1763
H 8.60028 1.9136 -7.07527
O 9.06007 1.17908 -7.52038
O 8.77539 2.63333 -7.71427
H 6.13607 4.35543 -5.58655
O 5.38703 4.7711 -5.10893
O 6.02764 4.70703 -6.49362
H 7.44326 -0.291357 -18.4028
O 6.71014 0.266676 -18.6869
O 7.84306 0.232387 -17.6754
H 6.33478 -5.07238 -18.5321
O 7.22738 -5.43312 -18.6881
O 5.8329 -5.91302 -18.4903
H 5.83476 -1.66551 -13.7842
O 5.78062 -2.57119 -14.1602
O 5.43654 -1.81701 -12.9008
H 9.85035 -0.329941 -8.15132
O -9.78663 -0.0148455 -8.90884
O -9.60781 -0.508833 -7.51137
H 5.80481 0.0932449 -2.8186
O 6.33773 -0.672628 -3.10812
O 5.83709 0.674156 -3.61202
H 7.0963 -2.40288 -3.18076
O 6.2737 -2.76112 -2.7969
O 7.67282 -3.20053 -3.14172
H 5.05443 -7.49028 -18.3824
O 4.95088 -7.93293 -17.5129
O 4.13932 -7.16108 -18.5094
H 5.73384 -4.14383 -14.974
O 6.00501 -5.08519 -15.0405
O 6.23921 -3.75249 -15.7181
H 5.8027 -4.31491 -9.53952
O 6.70372 -4.70253 -9.57753
O 5.79491 -3.97443 -8.62089
H 5.89119 -3.10369 -7.01273
O 5.06049 -2.67539 -6.77323
O 6.51252 -2.33915 -6.98838
H -9.24065 -5.49891 -1.86818
O -8.39819 -5.64858 -1.39006
O -9.86133 -5.9399 -1.25238
H 9.10169 -7.0006 -0.424716
O 9.41777 -7.90871 -0.338455
O 8.43494 -7.08047 -1.1452
H 6.21731 -6.86849 -14.9114
O 6.42433 -7.05952 -13.9734
O 5.64061 -7.62026 -15.163
H -7.81492 -5.75883 -10.7402
O -7.6344 -6.68628 -10.473
O -7.37167 -5.28279 -10.0148
H 9.6505 -2.92853 -9.35568
O -9.65071 -2.81822 -9.75169
O 9.5478 -2.07172 -8.90913
H 7.39334 -7.05599 -2.56003
O 6.51072 -6.65701 -2.70479
O 7.3582 -7.77891 -3.22664
H 8.84273 -6.37021 -18.5442
O 9.66604 -6.88839 -18.6895
O 9.26785 -5.48099 -18.5709
H -9.40813 -7.28368 -14.2465
O 9.97511 -7.54009 -14.7535
O -8.99393 -6.73419 -14.9449
H 5.19996 6.41819 -13.3259
O 5.66157 6.68061 -14.1505
O 5.96371 6.15028 -12.778
H -8.14662 -9.20761 -5.15576
O -9.06126 -8.87544 -5.33223
O -7.71727 -9.00721 -6.01232
H -7.87421 5.2222 -2.47448
O -7.82685 4.78752 -3.34799
O -8.20898 4.48696 -1.92632
H -4.71548 6.47573 -5.21489
O -5.00329 7.33058 -5.59734
O -3.74688 6.59862 -5.15202
H -0.706208 7.27718 -2.89632
O -0.623804 6.59452 -2.18975
O 0.199976 7.65645 -2.91141
H 1.67222 8.58979 -3.15446
O 2.45051 8.43698 -3.70396
O 2.08064 8.99595 -2.35816
H 7.08609 -8.9144 -4.54518
O 6.53568 -8.76025 -5.34305
O 6.92295 -9.87038 -4.41315
H -7.88335 8.11899 -4.62597
O -8.14017 9.05555 -4.77458
O -8.20946 8.00416 -3.71009
H -5.57177 8.97447 -6.04044
O -6.38806 8.75224 -5.55069
O -5.88047 9.73711 -6.57757
H 0.696268 7.77203 -7.51018
O -0.224504 7.48592 -7.67299
O 0.523598 8.49348 -6.86846
H 2.91744 6.96304 -6.10272
O 2.14268 7.30978 -6.59573
O 3.61998 7.58334 -6.40418
H 4.98726 8.61811 -6.8388
O 5.19114 9.57843 -6.87238
O 5.23015 8.36799 -7.75846
H -8.63699 6.80984 -8.79447
O -8.40019 6.53366 -7.88226
O -7.80157 6.56208 -9.24903
H -6.31395 5.9614 -10.0206
O -6.16358 4.99269 -9.98423
O -5.41616 6.27418 -9.77949
H -3.65949 6.46647 -9.37798
O -3.34263 5.54363 -9.46818
O -3.07985 6.77229 -8.64501
H 0.393421 -8.28367 -11.913
O -0.312512 -8.90658 -11.6535
O 1.21489 -8.78778 -11.7025
H 4.28351 -8.58607 -9.20947
O 4.83425 -8.74182 -10.0031
O 3.41232 -8.8035 -9.57059
H 5.5209 -9.15066 -11.5998
O 6.08392 -9.95077 -11.6841
O 6.14295 -8.45279 -11.8914
H -7.70263 -8.87846 -12.7659
O -8.30981 -8.34231 -13.3224
O -8.18748 -9.73278 -12.7546
H -8.91172 -7.56079 -18.3871
O -7.98273 -7.6712 -18.6783
O -8.75013 -7.01968 -17.5838
H -2.65039 -9.23778 -14.3656
O -1.75021 -8.96563 -14.6346
O -2.54592 -9.17237 -13.3928
H 2.76241 -9.61683 -11.4438
O 3.65709 -9.32927 -11.714
O 2.92809 9.39701 -11.3912
H 4.50479 -8.79306 -16.0374
O 3.63196 -8.46664 -15.7399
O 4.28681 -9.67831 -16.3923
H -10.0128 8.33642 -16.1929
O 9.95294 7.6459 -16.8386
O -9.91531 9.10122 -16.7858
H -6.17874 -7.99825 -18.5389
O -6.47078 -8.8094 -19.011
O -5.46023 -8.33031 -17.9789
H -1.51528 -6.21861 -16.0324
O -0.989548 -6.88304 -15.534
O -1.63856 -5.54136 -15.3337
H -1.0295 5.16571 -18.5081
O -0.111818 5.41509 -18.7674
O -0.963921 4.19052 -18.5914
H 6.70177 6.94824 -15.6578
O 6.63711 6.12766 -16.1922
O 6.71534 7.60425 -16.3816
H -6.6248 -7.94581 -3.20897
O -7.16086 -8.49313 -3.82316
O -5.90159 -8.5668 -2.97482
H -4.59789 -9.55877 -2.26467
O -3.74849 9.9529 -2.12513
O -5.10057 -9.96583 -1.53032
H -7.53209 9.91106 -19.7346
O -8.43686 9.79704 -19.4003
O -7.44993 9.19258 -20.3686
H 5.48166 5.96074 -1.81182
O 5.019 5.77047 -2.65657
O 5.49274 6.94112 -1.81504
H 9.62012 -2.72659 -15.4997
O 9.23028 -2.01167 -14.9613
O 8.91326 -2.85241 -16.1596
H 8.69402 1.78672 -4.35909
O 8.49689 1.97054 -5.30648
O 8.68772 0.807514 -4.35766
H 9.5645 3.8176 -8.80878
O -9.66717 3.6993 -8.59662
O 9.34881 4.63144 -8.30747
H 7.14619 -7.0055 -12.2463
O 8.12 -6.92182 -12.1885
O 6.87884 -6.32314 -11.6178
H 8.94311 -0.910027 -4.48987
O 8.35047 -1.47932 -3.95412
O 8.53534 -1.02803 -5.37223
H 7.18035 8.60462 -11.6886
O 7.76616 8.71277 -12.4663
O 7.20162 7.6275 -11.6322
H 7.41088 5.85915 -11.63
O 7.18238 5.11415 -11.061
O 8.39025 5.81558 -11.6078
H 8.62014 -4.67356 -3.27726
O 9.51449 -4.75674 -2.88943
O 8.24685 -5.54226 -3.01925
H 8.3511 -5.29926 -9.70912
O 8.91096 -5.68263 -10.4168
O 8.8292 -4.44933 -9.55051
H 8.68596 -7.44796 -15.9599
O 7.78946 -7.24001 -15.6315
O 8.68157 -7.00606 -16.8253
H 9.53624 -8.36986 -5.75717
O 8.75468 -8.57374 -5.2104
O 9.10576 -7.9262 -6.5132
H -4.01125 8.80332 -10.8559
O -3.78793 7.9677 -10.3911
O -4.85952 9.02249 -10.4513
H 6.67171 8.56916 -17.9919
O 5.69938 8.65012 -17.9104
O 6.91843 9.48059 -18.2486
H -0.0329475 9.32257 -5.33706
O 0.409869 9.09028 -4.49784
O -0.965942 9.10105 -5.15609
H -8.84118 9.3643 -9.87741
O -9.07796 9.13162 -10.7983
O -8.86534 8.4958 -9.43594
H -2.88165 9.20221 -5.54917
O -2.85262 -9.88386 -5.1436
O -3.84533 9.14731 -5.72733
H -2.47746 8.85336 -1.49102
O -1.84386 8.40083 -2.08415
O -2.93465 8.07504 -1.10225
H 8.6057 8.29083 -1.36225
O 9.53591 8.41302 -1.6334
O 8.46439 7.38664 -1.71994
H 6.38915 8.40359 -4.48594
O 5.84068 8.38413 -5.30007
O 7.04025 7.70052 -4.69446
H 5.65596 7.93343 -9.40618
O 6.31751 8.33634 -10.0011
O 4.88128 7.93251 -10.0106
H -9.14419 8.72834 -12.5519
O -9.97822 8.52377 -13.0218
O -8.63048 7.90951 -12.7081
H 10.002 -9.96735 -18.4318
O -9.71626 -9.10715 -18.345
O 9.08088 -9.64754 -18.5318
H -4.05981 8.29004 -13.6133
O -3.60383 9.04396 -14.0226
O -3.99985 8.50804 -12.6636
H 3.67084 7.7754 -11.3021
O 4.02777 7.22956 -12.0292
O 3.08357 7.14886 -10.8181
H 3.90686 8.84096 -17.5515
O 3.39878 8.82623 -18.3706
O 3.39558 8.19492 -17.0127
H -5.53674 8.91511 -0.0695285
O -4.91155 8.16401 -0.0878803
O -6.36202 8.44257 0.168783
H 3.1138 9.43412 -0.923842
O 2.94765 8.87958 -0.129967
O 4.05785 9.24916 -1.10559
H 2.09379 0.155945 4.93998
O 1.69928 0.991916 5.26311
O 1.3291 -0.259508 4.49767
H -0.207813 -1.01265 11.9735
O 0.205797 -1.5 12.7133
O -0.287225 -1.7113 11.3019
H -6.39242 0.0311849 12.9085
O -6.6674 -0.900335 13.045
O -5.56108 -0.110285 12.4065
H 3.97072 2.56108 9.33567
O 4.00434 1.74413 9.86627
O 4.34797 3.2102 9.95917
H -4.21324 3.01974 8.9221
O -4.36224 2.05426 8.837
O -3.36205 3.04748 9.40488
H -8.48591 -1.91546 5.67575
O -8.56324 -1.39572 6.48477
O -9.44228 -2.03616 5.45215
H -7.1319 -0.172309 9.51134
O -7.13864 -1.10931 9.23337
O -6.24238 0.0999346 9.2091
H 2.60498 7.1529 11.6962
O 2.49431 6.21687 11.9598
O 1.76897 7.54313 12.0487
H -0.647966 1.68999 11.9333
O -0.488588 0.718006 11.8678
O 0.127451 1.94873 12.4739
H 8.35052 -5.94883 13.1977
O 7.97578 -5.4537 13.9571
O 8.66344 -5.22034 12.623
H 2.74657 -3.09858 10.3858
O 2.27217 -3.83271 10.835
O 2.24845 -3.0797 9.54121
H -3.56689 -4.53596 8.25537
O -3.91496 -4.0856 7.45429
O -3.8465 -5.46245 8.04478
H 3.67105 -4.96072 7.37397
O 4.32978 -5.05815 8.09719
O 4.22803 -4.55804 6.6811
H -7.3452 -2.87559 8.94616
O -6.70429 -3.45529 9.41515
O -7.38322 -3.34709 8.08713
H -2.95092 -1.971 9.38869
O -2.02325 -2.19591 9.59969
O -3.23551 -2.81412 8.98705
H 7.05027 -4.4212 15.2059
O 6.67595 -3.64485 14.7368
O 7.52722 -4.00997 15.9532
H -5.86131 -6.67554 12.9719
O -6.58774 -6.33163 12.4273
O -6.37977 -7.08556 13.7075
H 0.992464 2.625 5.47388
O 0.669312 2.53806 4.55372
O 0.613091 3.50163 5.70557
H -3.1118 1.29261 13.1392
O -3.52369 2.1159 13.4735
O -2.25198 1.60824 12.7932
H 5.60135 -5.31055 9.3278
O 5.30228 -6.06931 9.87396
O 5.83499 -4.65163 10.0182
H -5.59774 -4.5588 10.1702
O -5.24399 -4.20991 11.0179
O -4.77713 -4.674 9.65191
H -4.39993 3.46514 14.365
O -4.50615 4.43325 14.272
O -5.32892 3.23624 14.561
H -9.91682 3.27345 4.60085
O 9.50833 3.85867 4.42254
O -9.41396 3.84495 5.22
H 4.97973 4.29209 11.2927
O 4.20973 4.58925 11.8196
O 5.54909 5.08545 11.2697
H 6.39714 -7.84503 12.8714
O 5.84789 -7.664 12.0803
O 7.06508 -7.12701 12.8191
H -1.89516 -8.8918 10.4784
O -1.83413 -9.80187 10.8382
O -2.72064 -8.60412 10.9218
H 2.78979 6.22395 6.16055
O 3.00685 5.28016 6.35853
O 3.43442 6.65978 6.7535
H 3.22087 3.67654 6.92048
O 2.55881 3.08014 6.52653
O 3.47061 3.20049 7.74243
H 5.87591 3.06615 15.2017
O 5.86965 2.57225 14.3545
O 6.0494 3.9713 14.8602
H 0.0513649 -1.14313 3.55428
O -0.743785 -0.602695 3.35813
O 0.336869 -1.37149 2.65048
H 1.17815 -1.81864 1.03836
O 2.00277 -1.78848 1.57514
O 1.45186 -2.46739 0.350328
H 7.3535 0.077775 13.5898
O 6.71046 0.755201 13.2898
O 8.18626 0.566433 13.4115
H 4.70474 -0.0460806 4.35371
O 3.75212 0.103342 4.57187
O 4.98776 -0.499083 5.17179
H 2.41606 -2.22525 17.6734
O 2.6349 -1.27005 17.7597
O 1.49118 -2.18034 17.3739
H -4.78593 -0.662309 5.84138
O -5.4671 -0.690516 5.14091
O -4.6355 -1.62381 5.96496
H -1.76463 3.47022 10.1917
O -1.05767 3.50603 9.53423
O -1.38755 2.82285 10.8321
H -4.10127 -0.784011 11.675
O -3.59367 -0.993441 10.8669
O -3.57573 -0.0606007 12.0825
H 2.68583 4.64698 12.9084
O 2.65703 4.86285 13.8583
O 2.17093 3.81586 12.9159
H -2.71552 3.6888 16.5102
O -3.35359 4.23354 17.0243
O -3.27107 3.51295 15.7156
H 3.61213 -1.79346 2.36287
O 4.03486 -1.11836 2.93342
O 4.26218 -1.86717 1.63143
H -5.71535 0.136837 17.8423
O -4.94736 0.728329 18.0171
O -6.07251 0.535352 17.0208
H 0.207712 5.22414 5.91359
O 1.0806 5.61803 6.09937
O -0.236067 5.96482 5.46282
H -4.92242 5.12969 17.3335
O -5.04468 5.46967 16.4192
O -5.7954 4.73294 17.5175
H 6.11558 -8.25477 2.59131
O 5.82334 -8.07292 3.50438
O 6.84443 -7.60849 2.4748
H -6.73502 -0.884168 3.85488
O -7.25556 -0.0826091 3.63051
O -7.3655 -1.32479 4.46924
H 8.79458 5.00173 1.30822
O 8.72125 5.98019 1.29629
O 9.76505 4.89993 1.21844
H -6.95321 0.850109 15.425
O -7.66124 0.175538 15.4633
O -6.59595 0.645195 14.5333
H -8.77832 3.87096 10.9824
O -8.59607 2.91279 11.089
O -8.18835 4.25867 11.6618
H 8.40627 5.57523 17.9283
O 8.0529 4.66036 17.962
O 7.58643 6.09346 18.1085
H -0.686638 5.33992 15.6128
O -0.529313 5.95082 16.3637
O -1.3367 4.72447 16.0073
H -0.67322 7.6607 4.8213
O -1.21122 7.97485 4.06512
O -1.24063 7.93428 5.57054
H -6.49769 6.63251 7.225
O -6.11549 6.20338 8.01933
O -7.12983 5.95992 6.90766
H 2.53735 7.8452 1.27592
O 3.13471 7.08169 1.10405
O 2.3913 7.7544 2.24373
H 1.99798 7.66708 3.98657
O 1.0484 7.72058 4.22994
O 2.32019 7.08375 4.71201
H 5.06072 -2.85236 18.0687
O 4.1003 -2.68444 18.0264
O 5.11952 -3.81844 17.9751
H -7.07673 3.57588 15.2113
O -7.36779 3.85739 16.0966
O -7.17764 2.6015 15.2983
H -4.42943 -8.65515 11.7011
O -5.09305 -8.67499 10.9756
O -4.78795 -7.89972 12.2136
H 0.357023 -7.64783 14.9021
O 0.672237 -8.56567 15.0014
O -0.60671 -7.79236 14.9611
H 2.84096 -4.83007 16.7449
O 2.02252 -5.14314 17.1822
O 2.78942 -3.87828 16.9612
H 5.27627 -2.13664 0.187896
O 5.10247 -2.42452 -0.729609
O 5.80131 -1.31914 0.051278
H 0.36646 -8.33409 1.93211
O -0.158178 -8.03667 2.70332
O -0.323096 -8.84857 1.464
H -4.79475 -3.27959 12.4356
O -5.63939 -3.16384 12.9216
O -4.55922 -2.34132 12.2637
H -4.8072 -3.44454 6.06594
O -5.70831 -3.7969 6.22769
O -4.52865 -3.98584 5.2941
H 0.683419 -3.16715 5.35164
O 0.417109 -2.38706 4.81754
O 1.50944 -3.42493 4.89032
H -0.170821 -2.79541 16.6963
O -0.958358 -3.18354 16.2497
O 0.0946222 -3.59267 17.2047
H 1.35887 -3.49321 8.04438
O 1.0144 -3.26049 7.1555
O 2.08733 -4.09422 7.78426
H -7.30562 -2.50225 13.3222
O -7.8373 -2.24786 14.1094
O -8.00524 -2.61279 12.648
H -2.81606 -6.93139 0.201171
O -3.1058 -7.10018 1.1234
O -3.47345 -6.24693 -0.0436759
H -10.0191 -5.69891 9.36304
O -9.27459 -5.99029 9.93973
O -9.54047 -5.50997 8.54724
H -8.61834 -6.00086 2.79903
O -8.35101 -5.09064 2.54171
O -9.471 -5.82406 3.23369
H 3.42596 -1.71362 12.6804
O 3.17843 -2.24435 11.8942
O 2.63676 -1.85221 13.2423
H -1.02607 -5.74941 7.97807
O -1.82231 -5.29432 8.31351
O -0.600517 -6.04288 8.81131
H -7.38641 -4.28628 6.5712
O -7.87934 -3.624 6.04341
O -7.72328 -5.13498 6.21208
H -3.76291 -4.87314 3.9526
O -2.85558 -4.85421 4.32493
O -3.68012 -4.29564 3.16125
H 1.05701 -4.91139 11.5169
O 1.18216 -5.14648 12.4617
O 0.773015 -5.77121 11.1335
H -3.67881 -3.34414 1.65187
O -4.02473 -3.88965 0.911585
O -2.87686 -2.95228 1.23205
H 6.3847 9.92157 17.9145
O 6.7831 9.65732 17.0565
O 6.81432 -9.19207 18.0605
H -7.47418 4.0663 18.0082
O -7.28992 4.11133 -34.7407
O -7.9288 3.18547 17.9762
H -0.520319 -3.16798 10.1251
O 0.00503035 -3.22405 9.2969
O -0.00469378 -3.79792 10.6786
H -4.39058 -7.04412 7.6112
O -5.2457 -7.47182 7.41089
O -3.78451 -7.80962 7.58306
H -2.53735 -4.63974 11.6869
O -3.26439 -4.04874 11.9711
O -1.97068 -4.05169 11.1668
H -2.09663 0.44185 2.76322
O -2.77783 -0.0201221 2.24364
O -2.67218 0.897179 3.41736
H 5.65921 2.00779 12.6656
O 5.55979 2.84499 12.1647
O 5.16496 1.40298 12.0697
H 2.12024 -6.54882 4.11941
O 1.75374 -6.80628 3.26349
O 2.38945 -5.61996 3.9624
H -0.769521 1.85122 15.639
O -0.262101 1.74616 16.4699
O -1.43153 2.51444 15.9048
H 3.00481 -3.89979 4.03211
O 3.86619 -3.93046 4.49111
O 3.17498 -3.1885 3.37717
H -4.52506 0.223589 8.47326
O -4.60366 0.0197017 7.51671
O -3.92273 -0.491757 8.75978
H 0.0530623 2.25239 2.88917
O -0.346198 3.13536 2.70128
O -0.714412 1.65842 2.76353
H -8.73372 -1.31842 15.3644
O -8.54977 -1.43718 16.3224
O -9.71401 -1.2513 15.3915
H -1.21683 -0.487039 17.9335
O -2.0614 -0.948956 18.1084
O -0.763133 -1.19837 17.4386
H 2.0599 4.90371 15.6662
O 1.15901 5.07718 15.3188
O 1.80691 4.69225 16.5935
H 7.13601 -2.84559 3.52313
O 6.85043 -3.46417 2.81663
O 7.48782 -2.11253 2.97187
H 7.47359 3.00373 17.4606
O 6.86578 3.03516 16.6904
O 8.25505 2.57545 17.0535
H 7.87865 4.672 3.89686
O 7.13355 4.04307 3.90767
O 8.10032 4.7091 2.94345
H 4.35737 0.300585 10.977
O 3.92718 -0.291437 11.6282
O 4.64148 -0.351901 10.3058
H -4.1228 3.67396 6.21029
O -4.04064 4.64389 6.12425
O -4.17079 3.55217 7.17735
H -9.27037 -0.821029 1.66539
O -9.06974 -0.0852132 2.28022
O 9.94725 -0.907994 1.77887
H -3.83 1.64221 4.4793
O -3.91017 2.37931 5.13271
O -4.11639 0.888926 5.03154
H -2.30944 6.39299 13.689
O -2.00484 7.29754 13.8778
O -1.65492 5.88959 14.2188
H -4.07251 6.44481 5.89143
O -4.9433 6.68077 6.27217
O -3.4933 7.13118 6.28628
H 1.26079 2.34931 13.8136
O 0.508728 2.16278 14.4161
O 2.01042 2.0834 14.3802
H 4.86338 3.34218 1.49481
O 5.22371 3.00387 2.34618
O 3.98253 2.90108 1.48648
H 3.82253 6.91543 16.4519
O 3.28394 6.13654 16.2156
O 4.07629 7.21407 15.5511
H 8.59032 7.80234 1.36607
O 8.50415 8.08634 0.431785
O 7.79945 8.21035 1.78037
H -7.43836 -7.81713 14.8312
O -8.37847 -7.98375 14.6234
O -7.42444 -7.8612 15.8069
H 6.09323 2.29719 3.66313
O 5.51718 1.56245 3.96591
O 6.96803 1.86458 3.72902
H -7.43627 5.29022 12.979
O -7.33862 4.68095 13.7414
O -7.28914 6.15037 13.4153
H -2.88289 3.97725 -0.0813897
O -2.95568 3.08647 -0.473226
O -3.23589 3.80217 0.817262
H -4.11184 3.49285 2.37685
O -3.95615 2.86447 3.11315
O -3.85763 4.34711 2.7922
H -8.33721 1.3238 3.22327
O -8.83552 1.98272 3.7492
O -7.76503 1.91837 2.69184
H 1.48313 -5.24654 14.2589