ITEM: TIMESTEP
100000
ITEM: NUMBER OF ATOMS
1748
ITEM: BOX BOUNDS pp pp pp
-1.0093999999999999e+01 1.0093999999999999e+01
-9.9900000000000002e+00 9.9900000000000002e+00
-3.2622344019771305e+01 1.6495344019530414e+01
ITEM: ATOMS id type element mass x y z vx vy vz ix iy iz
1498 3 C 197 -1.66492 -1.77636e-15 -30.0777 0 0 0 0 0 0
1499 3 C 197 -4.1623 -1.44186 -30.0777 0 0 0 0 0 0
1513 3 C 197 -9.15705 -1.44186 -30.0777 0 0 0 0 0 0
1514 3 C 197 -6.65967 -2.88372 -30.0777 0 0 0 0 0 0
1515 3 C 197 -9.15705 -4.32558 -30.0777 0 0 0 0 0 0
1516 3 C 197 -6.65967 -1.77636e-15 -30.0777 0 0 0 0 0 0
1518 3 C 197 -4.99475 -1.77636e-15 -27.9239 0 0 0 0 0 0
1519 3 C 197 -7.49213 -1.44186 -27.9239 0 0 0 0 0 0
1531 3 C 197 -9.98951 -2.88372 -27.9239 0 0 0 0 0 0
1532 3 C 197 -9.98951 -1.77636e-15 -27.9239 0 0 0 0 0 0
1586 3 C 197 -4.1623 -4.32558 -30.0777 0 0 0 0 0 0
1587 3 C 197 -1.66492 -5.76745 -30.0777 0 0 0 0 0 0
1588 3 C 197 -4.1623 -7.20931 -30.0777 0 0 0 0 0 0
1589 3 C 197 -1.66492 -2.88372 -30.0777 0 0 0 0 0 0
1590 3 C 197 -2.49738 -1.44186 -27.9239 0 0 0 0 0 0
1591 3 C 197 -1.77636e-15 -2.88372 -27.9239 0 0 0 0 0 0
1592 3 C 197 -2.49738 -4.32558 -27.9239 0 0 0 0 0 0
1607 3 C 197 -9.15705 -7.20931 -30.0777 0 0 0 0 0 0
1608 3 C 197 -6.65967 -8.65117 -30.0777 0 0 0 0 0 0
1609 3 C 197 -6.65967 -5.76745 -30.0777 0 0 0 0 0 0
1610 3 C 197 -7.49213 -4.32558 -27.9239 0 0 0 0 0 0
1611 3 C 197 -4.99475 -5.76745 -27.9239 0 0 0 0 0 0
1612 3 C 197 -7.49213 -7.20931 -27.9239 0 0 0 0 0 0
1613 3 C 197 -4.99475 -2.88372 -27.9239 0 0 0 0 0 0
1626 3 C 197 -9.98951 -8.65117 -27.9239 0 0 0 0 0 0
1627 3 C 197 -9.98951 -5.76745 -27.9239 0 0 0 0 0 0
1675 3 C 197 -1.66492 -8.65117 -30.0777 0 0 0 0 0 0
1676 3 C 197 -2.49738 -7.20931 -27.9239 0 0 0 0 0 0
1677 3 C 197 -1.77636e-15 -8.65117 -27.9239 0 0 0 0 0 0
1678 3 C 197 -1.77636e-15 -5.76745 -27.9239 0 0 0 0 0 0
1691 3 C 197 -4.99475 -8.65117 -27.9239 0 0 0 0 0 0
1533 3 C 197 -8.32459 -1.77636e-15 -25.7702 0 0 0 0 0 0
1596 3 C 197 -0.832459 -1.44186 -25.7702 0 0 0 0 0 0
1614 3 C 197 -5.82721 -1.44186 -25.7702 0 0 0 0 0 0
1615 3 C 197 -3.32984 -2.88372 -25.7702 0 0 0 0 0 0
1616 3 C 197 -5.82721 -4.32558 -25.7702 0 0 0 0 0 0
1617 3 C 197 -3.32984 -1.77636e-15 -25.7702 0 0 0 0 0 0
1628 3 C 197 -8.32459 -5.76745 -25.7702 0 0 0 0 0 0
1629 3 C 197 -8.32459 -2.88372 -25.7702 0 0 0 0 0 0
1679 3 C 197 -0.832459 -4.32558 -25.7702 0 0 0 0 0 0
1681 3 C 197 -0.832459 -7.20931 -25.7702 0 0 0 0 0 0
1692 3 C 197 -5.82721 -7.20931 -25.7702 0 0 0 0 0 0
1693 3 C 197 -3.32984 -8.65117 -25.7702 0 0 0 0 0 0
1694 3 C 197 -3.32984 -5.76745 -25.7702 0 0 0 0 0 0
1703 3 C 197 -8.32459 -8.65117 -25.7702 0 0 0 0 0 0
1448 3 C 197 -8.32459 -1.77636e-15 -32.2314 0 0 0 0 0 0
1481 3 C 197 -0.832459 -1.44186 -32.2314 0 0 0 0 0 0
1493 3 C 197 -5.82721 -1.44186 -32.2314 0 0 0 0 0 0
1494 3 C 197 -3.32984 -2.88372 -32.2314 0 0 0 0 0 0
1495 3 C 197 -5.82721 -4.32558 -32.2314 0 0 0 0 0 0
1496 3 C 197 -3.32984 -1.77636e-15 -32.2314 0 0 0 0 0 0
1511 3 C 197 -8.32459 -5.76745 -32.2314 0 0 0 0 0 0
1512 3 C 197 -8.32459 -2.88372 -32.2314 0 0 0 0 0 0
1561 3 C 197 -0.832459 -4.32558 -32.2314 0 0 0 0 0 0
1563 3 C 197 -0.832459 -7.20931 -32.2314 0 0 0 0 0 0
1583 3 C 197 -5.82721 -7.20931 -32.2314 0 0 0 0 0 0
1584 3 C 197 -3.32984 -8.65117 -32.2314 0 0 0 0 0 0
1585 3 C 197 -3.32984 -5.76745 -32.2314 0 0 0 0 0 0
1606 3 C 197 -8.32459 -8.65117 -32.2314 0 0 0 0 0 0
1552 3 C 197 8.32459 -1.77636e-15 -30.0777 0 0 0 0 0 0
1553 3 C 197 5.82721 -1.44186 -30.0777 0 0 0 0 0 0
1565 3 C 197 0.832459 -1.44186 -30.0777 0 0 0 0 0 0
1566 3 C 197 3.32984 -2.88372 -30.0777 0 0 0 0 0 0
1567 3 C 197 0.832459 -4.32558 -30.0777 0 0 0 0 0 0
1568 3 C 197 3.32984 -1.77636e-15 -30.0777 0 0 0 0 0 0
1570 3 C 197 4.99475 -1.77636e-15 -27.9239 0 0 0 0 0 0
1571 3 C 197 2.49738 -1.44186 -27.9239 0 0 0 0 0 0
1593 3 C 197 0 -1.77636e-15 -27.9239 0 0 0 0 0 0
1645 3 C 197 5.82721 -4.32558 -30.0777 0 0 0 0 0 0
1646 3 C 197 8.32459 -5.76745 -30.0777 0 0 0 0 0 0
1647 3 C 197 5.82721 -7.20931 -30.0777 0 0 0 0 0 0
1648 3 C 197 8.32459 -2.88372 -30.0777 0 0 0 0 0 0
1649 3 C 197 7.49213 -1.44186 -27.9239 0 0 0 0 0 0
1650 3 C 197 9.98951 -2.88372 -27.9239 0 0 0 0 0 0
1651 3 C 197 7.49213 -4.32558 -27.9239 0 0 0 0 0 0
1652 3 C 197 9.98951 -1.77636e-15 -27.9239 0 0 0 0 0 0
1656 3 C 197 0.832459 -7.20931 -30.0777 0 0 0 0 0 0
1657 3 C 197 3.32984 -8.65117 -30.0777 0 0 0 0 0 0
1658 3 C 197 3.32984 -5.76745 -30.0777 0 0 0 0 0 0
1659 3 C 197 2.49738 -4.32558 -27.9239 0 0 0 0 0 0
1660 3 C 197 4.99475 -5.76745 -27.9239 0 0 0 0 0 0
1661 3 C 197 2.49738 -7.20931 -27.9239 0 0 0 0 0 0
1662 3 C 197 4.99475 -2.88372 -27.9239 0 0 0 0 0 0
1713 3 C 197 8.32459 -8.65117 -30.0777 0 0 0 0 0 0
1714 3 C 197 7.49213 -7.20931 -27.9239 0 0 0 0 0 0
1715 3 C 197 9.98951 -8.65117 -27.9239 0 0 0 0 0 0
1716 3 C 197 9.98951 -5.76745 -27.9239 0 0 0 0 0 0
1719 3 C 197 4.99475 -8.65117 -27.9239 0 0 0 0 0 0
1595 3 C 197 1.66492 -1.77636e-15 -25.7702 0 0 0 0 0 0
1654 3 C 197 9.15705 -1.44186 -25.7702 0 0 0 0 0 0
1663 3 C 197 4.1623 -1.44186 -25.7702 0 0 0 0 0 0
1664 3 C 197 6.65967 -2.88372 -25.7702 0 0 0 0 0 0
1665 3 C 197 4.1623 -4.32558 -25.7702 0 0 0 0 0 0
1666 3 C 197 6.65967 -1.77636e-15 -25.7702 0 0 0 0 0 0
1680 3 C 197 1.66492 -5.76745 -25.7702 0 0 0 0 0 0
1682 3 C 197 1.66492 -2.88372 -25.7702 0 0 0 0 0 0
1717 3 C 197 9.15705 -4.32558 -25.7702 0 0 0 0 0 0
1718 3 C 197 9.15705 -7.20931 -25.7702 0 0 0 0 0 0
1720 3 C 197 4.1623 -7.20931 -25.7702 0 0 0 0 0 0
1721 3 C 197 6.65967 -8.65117 -25.7702 0 0 0 0 0 0
1722 3 C 197 6.65967 -5.76745 -25.7702 0 0 0 0 0 0
1731 3 C 197 1.66492 -8.65117 -25.7702 0 0 0 0 0 0
1480 3 C 197 1.66492 -1.77636e-15 -32.2314 0 0 0 0 0 0
1546 3 C 197 9.15705 -1.44186 -32.2314 0 0 0 0 0 0
1547 3 C 197 4.1623 -1.44186 -32.2314 0 0 0 0 0 0
1548 3 C 197 6.65967 -2.88372 -32.2314 0 0 0 0 0 0
1549 3 C 197 4.1623 -4.32558 -32.2314 0 0 0 0 0 0
1550 3 C 197 6.65967 -1.77636e-15 -32.2314 0 0 0 0 0 0
1562 3 C 197 1.66492 -5.76745 -32.2314 0 0 0 0 0 0
1564 3 C 197 1.66492 -2.88372 -32.2314 0 0 0 0 0 0
1640 3 C 197 9.15705 -4.32558 -32.2314 0 0 0 0 0 0
1641 3 C 197 9.15705 -7.20931 -32.2314 0 0 0 0 0 0
1642 3 C 197 4.1623 -7.20931 -32.2314 0 0 0 0 0 0
1643 3 C 197 6.65967 -8.65117 -32.2314 0 0 0 0 0 0
1644 3 C 197 6.65967 -5.76745 -32.2314 0 0 0 0 0 0
1655 3 C 197 1.66492 -8.65117 -32.2314 0 0 0 0 0 0
1427 3 C 197 -6.65967 8.65117 -30.0777 0 0 0 0 0 0
1428 3 C 197 -9.15705 7.20931 -30.0777 0 0 0 0 0 0
1429 3 C 197 -9.98951 8.65117 -27.9239 0 0 0 0 0 0
1442 3 C 197 -4.1623 7.20931 -30.0777 0 0 0 0 0 0
1443 3 C 197 -1.66492 5.76745 -30.0777 0 0 0 0 0 0
1444 3 C 197 -4.1623 4.32558 -30.0777 0 0 0 0 0 0
1445 3 C 197 -1.66492 8.65117 -30.0777 0 0 0 0 0 0
1446 3 C 197 -1.77636e-15 8.65117 -27.9239 0 0 0 0 0 0
1447 3 C 197 -2.49738 7.20931 -27.9239 0 0 0 0 0 0
1450 3 C 197 -9.15705 4.32558 -30.0777 0 0 0 0 0 0
1451 3 C 197 -6.65967 2.88372 -30.0777 0 0 0 0 0 0
1452 3 C 197 -9.15705 1.44186 -30.0777 0 0 0 0 0 0
1453 3 C 197 -6.65967 5.76745 -30.0777 0 0 0 0 0 0
1454 3 C 197 -7.49213 7.20931 -27.9239 0 0 0 0 0 0
1455 3 C 197 -4.99475 5.76745 -27.9239 0 0 0 0 0 0
1456 3 C 197 -7.49213 4.32558 -27.9239 0 0 0 0 0 0
1457 3 C 197 -4.99475 8.65117 -27.9239 0 0 0 0 0 0
1460 3 C 197 -9.98951 2.88372 -27.9239 0 0 0 0 0 0
1461 3 C 197 -9.98951 5.76745 -27.9239 0 0 0 0 0 0
1497 3 C 197 -4.1623 1.44186 -30.0777 0 0 0 0 0 0
1500 3 C 197 -1.66492 2.88372 -30.0777 0 0 0 0 0 0
1501 3 C 197 -2.49738 4.32558 -27.9239 0 0 0 0 0 0
1502 3 C 197 -1.77636e-15 2.88372 -27.9239 0 0 0 0 0 0
1503 3 C 197 -2.49738 1.44186 -27.9239 0 0 0 0 0 0
1504 3 C 197 -1.77636e-15 5.76745 -27.9239 0 0 0 0 0 0
1517 3 C 197 -7.49213 1.44186 -27.9239 0 0 0 0 0 0
1520 3 C 197 -4.99475 2.88372 -27.9239 0 0 0 0 0 0
1458 3 C 197 -3.32984 8.65117 -25.7702 0 0 0 0 0 0
1459 3 C 197 -5.82721 7.20931 -25.7702 0 0 0 0 0 0
1462 3 C 197 -8.32459 5.76745 -25.7702 0 0 0 0 0 0
1463 3 C 197 -8.32459 8.65117 -25.7702 0 0 0 0 0 0
1505 3 C 197 -0.832459 7.20931 -25.7702 0 0 0 0 0 0
1507 3 C 197 -0.832459 4.32558 -25.7702 0 0 0 0 0 0
1521 3 C 197 -5.82721 4.32558 -25.7702 0 0 0 0 0 0
1522 3 C 197 -3.32984 2.88372 -25.7702 0 0 0 0 0 0
1523 3 C 197 -5.82721 1.44186 -25.7702 0 0 0 0 0 0
1524 3 C 197 -3.32984 5.76745 -25.7702 0 0 0 0 0 0
1534 3 C 197 -8.32459 2.88372 -25.7702 0 0 0 0 0 0
1594 3 C 197 -0.832459 1.44186 -25.7702 0 0 0 0 0 0
1423 3 C 197 -3.32984 8.65117 -32.2314 0 0 0 0 0 0
1424 3 C 197 -5.82721 7.20931 -32.2314 0 0 0 0 0 0
1425 3 C 197 -8.32459 5.76745 -32.2314 0 0 0 0 0 0
1426 3 C 197 -8.32459 8.65117 -32.2314 0 0 0 0 0 0
1432 3 C 197 -0.832459 7.20931 -32.2314 0 0 0 0 0 0
1434 3 C 197 -0.832459 4.32558 -32.2314 0 0 0 0 0 0
1438 3 C 197 -5.82721 4.32558 -32.2314 0 0 0 0 0 0
1439 3 C 197 -3.32984 2.88372 -32.2314 0 0 0 0 0 0
1440 3 C 197 -5.82721 1.44186 -32.2314 0 0 0 0 0 0
1441 3 C 197 -3.32984 5.76745 -32.2314 0 0 0 0 0 0
1449 3 C 197 -8.32459 2.88372 -32.2314 0 0 0 0 0 0
1479 3 C 197 -0.832459 1.44186 -32.2314 0 0 0 0 0 0
1436 3 C 197 3.32984 8.65117 -30.0777 0 0 0 0 0 0
1437 3 C 197 0.832459 7.20931 -30.0777 0 0 0 0 0 0
1473 3 C 197 5.82721 7.20931 -30.0777 0 0 0 0 0 0
1474 3 C 197 8.32459 5.76745 -30.0777 0 0 0 0 0 0
1475 3 C 197 5.82721 4.32558 -30.0777 0 0 0 0 0 0
1476 3 C 197 8.32459 8.65117 -30.0777 0 0 0 0 0 0
1477 3 C 197 9.98951 8.65117 -27.9239 0 0 0 0 0 0
1478 3 C 197 7.49213 7.20931 -27.9239 0 0 0 0 0 0
1483 3 C 197 0.832459 4.32558 -30.0777 0 0 0 0 0 0
1484 3 C 197 3.32984 2.88372 -30.0777 0 0 0 0 0 0
1485 3 C 197 0.832459 1.44186 -30.0777 0 0 0 0 0 0
1486 3 C 197 3.32984 5.76745 -30.0777 0 0 0 0 0 0
1487 3 C 197 2.49738 7.20931 -27.9239 0 0 0 0 0 0
1488 3 C 197 4.99475 5.76745 -27.9239 0 0 0 0 0 0
1489 3 C 197 2.49738 4.32558 -27.9239 0 0 0 0 0 0
1490 3 C 197 4.99475 8.65117 -27.9239 0 0 0 0 0 0
1551 3 C 197 5.82721 1.44186 -30.0777 0 0 0 0 0 0
1554 3 C 197 8.32459 2.88372 -30.0777 0 0 0 0 0 0
1555 3 C 197 7.49213 4.32558 -27.9239 0 0 0 0 0 0
1556 3 C 197 9.98951 2.88372 -27.9239 0 0 0 0 0 0
1557 3 C 197 7.49213 1.44186 -27.9239 0 0 0 0 0 0
1558 3 C 197 9.98951 5.76745 -27.9239 0 0 0 0 0 0
1569 3 C 197 2.49738 1.44186 -27.9239 0 0 0 0 0 0
1572 3 C 197 4.99475 2.88372 -27.9239 0 0 0 0 0 0
1491 3 C 197 6.65967 8.65117 -25.7702 0 0 0 0 0 0
1492 3 C 197 4.1623 7.20931 -25.7702 0 0 0 0 0 0
1506 3 C 197 1.66492 5.76745 -25.7702 0 0 0 0 0 0
1508 3 C 197 1.66492 8.65117 -25.7702 0 0 0 0 0 0
1559 3 C 197 9.15705 7.20931 -25.7702 0 0 0 0 0 0
1560 3 C 197 9.15705 4.32558 -25.7702 0 0 0 0 0 0
1573 3 C 197 4.1623 4.32558 -25.7702 0 0 0 0 0 0
1574 3 C 197 6.65967 2.88372 -25.7702 0 0 0 0 0 0
1575 3 C 197 4.1623 1.44186 -25.7702 0 0 0 0 0 0
1576 3 C 197 6.65967 5.76745 -25.7702 0 0 0 0 0 0
1597 3 C 197 1.66492 2.88372 -25.7702 0 0 0 0 0 0
1653 3 C 197 9.15705 1.44186 -25.7702 0 0 0 0 0 0
1430 3 C 197 6.65967 8.65117 -32.2314 0 0 0 0 0 0
1431 3 C 197 4.1623 7.20931 -32.2314 0 0 0 0 0 0
1433 3 C 197 1.66492 5.76745 -32.2314 0 0 0 0 0 0
1435 3 C 197 1.66492 8.65117 -32.2314 0 0 0 0 0 0
1467 3 C 197 9.15705 7.20931 -32.2314 0 0 0 0 0 0
1468 3 C 197 9.15705 4.32558 -32.2314 0 0 0 0 0 0
1469 3 C 197 4.1623 4.32558 -32.2314 0 0 0 0 0 0
1470 3 C 197 6.65967 2.88372 -32.2314 0 0 0 0 0 0
1471 3 C 197 4.1623 1.44186 -32.2314 0 0 0 0 0 0
1472 3 C 197 6.65967 5.76745 -32.2314 0 0 0 0 0 0
1482 3 C 197 1.66492 2.88372 -32.2314 0 0 0 0 0 0
1545 3 C 197 9.15705 1.44186 -32.2314 0 0 0 0 0 0
1619 3 C 197 -1.66492 -1.77636e-15 -23.6164 0 0 0 0 0 0
1620 3 C 197 -4.1623 -1.44186 -23.6164 0 0 0 0 0 0
1630 3 C 197 -9.15705 -1.44186 -23.6164 0 0 0 0 0 0
1631 3 C 197 -6.65967 -2.88372 -23.6164 0 0 0 0 0 0
1632 3 C 197 -9.15705 -4.32558 -23.6164 0 0 0 0 0 0
1633 3 C 197 -6.65967 -1.77636e-15 -23.6164 0 0 0 0 0 0
1695 3 C 197 -4.1623 -4.32558 -23.6164 0 0 0 0 0 0
1696 3 C 197 -1.66492 -5.76745 -23.6164 0 0 0 0 0 0
1697 3 C 197 -4.1623 -7.20931 -23.6164 0 0 0 0 0 0
1698 3 C 197 -1.66492 -2.88372 -23.6164 0 0 0 0 0 0
1704 3 C 197 -9.15705 -7.20931 -23.6164 0 0 0 0 0 0
1705 3 C 197 -6.65967 -8.65117 -23.6164 0 0 0 0 0 0
1706 3 C 197 -6.65967 -5.76745 -23.6164 0 0 0 0 0 0
1739 3 C 197 -1.66492 -8.65117 -23.6164 0 0 0 0 0 0
1635 3 C 197 -4.99475 -1.77636e-15 -21.4627 0 0 0 0 0 0
1636 3 C 197 -7.49213 -1.44186 -21.4627 0 0 0 0 0 0
1638 3 C 197 -9.98951 -2.88372 -21.4627 0 0 0 0 0 0
1639 3 C 197 -9.98951 -1.77636e-15 -21.4627 0 0 0 0 0 0
1699 3 C 197 -2.49738 -1.44186 -21.4627 0 0 0 0 0 0
1701 3 C 197 -2.49738 -4.32558 -21.4627 0 0 0 0 0 0
1707 3 C 197 -7.49213 -4.32558 -21.4627 0 0 0 0 0 0
1708 3 C 197 -4.99475 -5.76745 -21.4627 0 0 0 0 0 0
1709 3 C 197 -7.49213 -7.20931 -21.4627 0 0 0 0 0 0
1710 3 C 197 -4.99475 -2.88372 -21.4627 0 0 0 0 0 0
1711 3 C 197 -9.98951 -8.65117 -21.4627 0 0 0 0 0 0
1712 3 C 197 -9.98951 -5.76745 -21.4627 0 0 0 0 0 0
1740 3 C 197 -2.49738 -7.20931 -21.4627 0 0 0 0 0 0
1743 3 C 197 -4.99475 -8.65117 -21.4627 0 0 0 0 0 0
630 1 C 1.008 -7.79917 -9.001 -20.3118 -0.0290756 -0.00781934 0.021845 0 1 0
533 1 C 1.008 -6.47639 -4.32232 -18.7701 0.00413463 0.000516633 -0.00353339 1 0 0
311 1 C 1.008 -1.3471 -9.69765 -19.7871 -0.000812165 0.00440347 -0.00801043 0 1 0
492 1 C 1.008 -0.704657 -0.490696 -18.6535 0.0103298 -0.00196344 0.00314603 -1 1 0
606 1 C 1.008 -2.70592 -3.8154 -18.8564 -0.00604821 -0.0136427 -0.0240706 0 0 0
397 2 C 15.999 -0.732267 -4.38217 -18.7541 -0.007173 0.00580398 0.000357151 0 0 0
532 2 C 15.999 -6.34244 -3.37752 -18.8452 0.000489662 0.0010136 -0.0037037 1 0 0
458 1 C 1.008 -7.9646 -0.801669 -18.4897 0.005992 -0.0102909 0.029829 0 0 0
310 2 C 15.999 -2.28343 -9.87987 -19.7077 0.000590226 0.00145969 0.00172588 0 1 0
491 1 C 1.008 -0.333772 -1.95798 -18.691 -0.00546882 -0.00579732 -0.0029406 -1 1 0
605 1 C 1.008 -3.03649 -2.41463 -19.3259 0.00108548 -0.00600102 -0.00624069 0 0 0
457 2 C 15.999 -8.63053 -1.48857 -18.459 -0.00854862 0.00257893 0.00234987 0 0 0
228 1 C 1.008 -2.52082 -6.8734 -18.4064 -0.00469256 -0.00488291 0.0065478 0 0 0
343 2 C 15.999 -0.724758 -7.18773 -18.7752 0.000368391 0.00247521 -0.00544502 0 0 0
628 2 C 15.999 -7.39778 -9.80681 -19.9865 -0.00128365 -0.00279906 1.4716e-06 0 1 0
208 2 C 15.999 -6.16722 -6.18881 -18.7309 -0.00303334 0.00395479 -0.00170334 0 0 0
398 1 C 1.008 0.118584 -3.96896 -18.9008 -0.00302866 0.00173189 0.0129526 0 0 0
226 2 C 15.999 -3.36341 -7.32158 -18.48 -0.00449242 -0.00394761 -0.00151268 0 0 0
210 1 C 1.008 -5.26548 -6.50755 -18.6922 -0.00074958 0.0095794 -0.00858522 0 0 0
604 2 C 15.999 -3.43736 -3.20915 -18.9734 -0.000423203 -0.00209255 0.000864252 0 0 0
17 1 C 1.008 -9.49088 -8.27124 -18.9894 0.00472725 -0.00789003 0.0105241 0 0 0
227 1 C 1.008 -3.17765 -8.09627 -19.0106 -0.00201939 0.000289118 -0.00682551 0 0 0
534 1 C 1.008 -5.6777 -3.28286 -19.5274 0.00905867 0.002907 0.00494076 1 0 0
345 1 C 1.008 -0.581116 -8.06955 -18.4317 -0.00568326 0.00209252 -0.00388378 0 0 0
581 1 C 1.008 -5.94281 0.132074 -17.979 0.00407555 0.00454013 0.00794648 0 -1 0
1668 3 C 197 8.32459 -1.77636e-15 -23.6164 0 0 0 0 0 0
1669 3 C 197 5.82721 -1.44186 -23.6164 0 0 0 0 0 0
1683 3 C 197 0.832459 -1.44186 -23.6164 0 0 0 0 0 0
1684 3 C 197 3.32984 -2.88372 -23.6164 0 0 0 0 0 0
1685 3 C 197 0.832459 -4.32558 -23.6164 0 0 0 0 0 0
1686 3 C 197 3.32984 -1.77636e-15 -23.6164 0 0 0 0 0 0
1723 3 C 197 5.82721 -4.32558 -23.6164 0 0 0 0 0 0
1724 3 C 197 8.32459 -5.76745 -23.6164 0 0 0 0 0 0
1725 3 C 197 5.82721 -7.20931 -23.6164 0 0 0 0 0 0
1726 3 C 197 8.32459 -2.88372 -23.6164 0 0 0 0 0 0
1732 3 C 197 0.832459 -7.20931 -23.6164 0 0 0 0 0 0
1733 3 C 197 3.32984 -8.65117 -23.6164 0 0 0 0 0 0
1734 3 C 197 3.32984 -5.76745 -23.6164 0 0 0 0 0 0
1744 3 C 197 8.32459 -8.65117 -23.6164 0 0 0 0 0 0
1688 3 C 197 4.99475 -1.77636e-15 -21.4627 0 0 0 0 0 0
1689 3 C 197 2.49738 -1.44186 -21.4627 0 0 0 0 0 0
1700 3 C 197 1.77636e-15 -2.88372 -21.4627 0 0 0 0 0 0
1702 3 C 197 0 -1.77636e-15 -21.4627 0 0 0 0 0 0
1727 3 C 197 7.49213 -1.44186 -21.4627 0 0 0 0 0 0
1728 3 C 197 9.98951 -2.88372 -21.4627 0 0 0 0 0 0
1729 3 C 197 7.49213 -4.32558 -21.4627 0 0 0 0 0 0
1730 3 C 197 9.98951 -1.77636e-15 -21.4627 0 0 0 0 0 0
1735 3 C 197 2.49738 -4.32558 -21.4627 0 0 0 0 0 0
1736 3 C 197 4.99475 -5.76745 -21.4627 0 0 0 0 0 0
1737 3 C 197 2.49738 -7.20931 -21.4627 0 0 0 0 0 0
1738 3 C 197 4.99475 -2.88372 -21.4627 0 0 0 0 0 0
1741 3 C 197 0 -8.65117 -21.4627 0 0 0 0 0 0
1742 3 C 197 1.77636e-15 -5.76745 -21.4627 0 0 0 0 0 0
1745 3 C 197 7.49213 -7.20931 -21.4627 0 0 0 0 0 0
1746 3 C 197 9.98951 -8.65117 -21.4627 0 0 0 0 0 0
1747 3 C 197 9.98951 -5.76745 -21.4627 0 0 0 0 0 0
1748 3 C 197 4.99475 -8.65117 -21.4627 0 0 0 0 0 0
1317 1 C 1.008 3.18758 9.35641 -20.679 -0.00304911 0.00613167 -0.0123541 0 0 0
1315 2 C 15.999 2.58533 9.78882 -20.0736 0.00400539 -3.67959e-05 -0.000942349 0 0 0
1316 1 C 1.008 3.05386 -9.40674 -19.7883 0.00179924 0.00420906 -0.00899959 0 1 0
257 1 C 1.008 6.71344 -6.66248 -19.1572 0.00181053 -0.015434 -0.0231829 0 0 0
650 1 C 1.008 7.83674 -9.54646 -19.2992 -0.0371729 0.00490172 0.0131594 0 1 0
488 1 C 1.008 2.29605 -2.81622 -19.5371 0.00668536 0.0128266 0.000298717 0 0 0
487 2 C 15.999 1.55869 -2.53615 -18.9948 0.00274282 -0.0010035 0.00209204 0 0 0
1018 2 C 15.999 5.68256 -1.47901 -18.594 -0.00109968 -0.000248336 -0.000519647 0 1 0
197 1 C 1.008 4.35638 -7.72298 -18.8745 0.000715896 -0.00977142 -0.0162556 -1 0 0
256 2 C 15.999 6.20373 -7.30264 -18.6606 0.00315825 0.00151836 0.000149944 0 0 0
1020 1 C 1.008 6.61232 -1.42568 -18.8152 -0.000223367 -0.0235603 -0.00247912 0 1 0
27 1 C 1.008 8.39282 -0.374356 -19.12 0.03143 0.0170331 -0.0102751 -1 0 0
651 1 C 1.008 7.3113 -9.15582 -20.6642 -0.00237917 0.00512297 -0.000192677 0 1 0
1019 1 C 1.008 5.34413 -0.60034 -18.7661 0.0170145 0.00372408 -0.0159624 0 1 0
383 1 C 1.008 8.23181 -5.17095 -17.4696 0.00709598 -0.0174802 0.0108545 0 0 0
365 1 C 1.008 4.78321 -3.092 -18.5539 -0.00378382 -0.00695141 0.00820559 0 0 0
366 1 C 1.008 5.0713 -4.09265 -19.6528 -0.00198674 0.0121827 -0.00875016 0 0 0
489 1 C 1.008 1.64077 -1.58345 -18.9516 -0.00749075 -0.000600078 0.012726 0 0 0
382 2 C 15.999 8.41804 -5.52553 -18.3389 0.00189657 -0.00426783 0.00435231 0 0 0
521 1 C 1.008 3.173 0.231833 -18.5228 -0.00732667 -0.0143335 0.0177655 -1 -1 0
520 2 C 15.999 2.26198 0.0221729 -18.7285 -0.00726306 0.00649466 -0.00388194 -1 -1 0
38 1 C 1.008 9.4013 -2.47657 -19.1696 -0.0184513 -0.00319557 -0.0195603 0 0 0
37 2 C 15.999 8.64539 -2.10598 -18.7141 0.00133909 0.00488759 0.00677555 0 0 0
384 1 C 1.008 9.28022 -5.17443 -18.5617 -0.00698892 0.0130533 -0.00277639 0 0 0
364 2 C 15.999 4.52168 -3.95242 -18.8818 0.00380929 -0.00560841 -0.0013791 0 0 0
564 1 C 1.008 -3.71081 0.565259 -19.1841 -0.00675199 0.000268826 0.000971157 0 0 0
629 1 C 1.008 -6.58793 -9.51854 -19.5655 -0.00778668 0.0129816 0.00173655 0 1 0
312 1 C 1.008 -2.32698 9.27005 -19.2331 0.00848532 -0.00640087 -0.011338 0 0 0
1464 3 C 197 -6.65967 8.65117 -23.6164 0 0 0 0 0 0
1465 3 C 197 -9.15705 7.20931 -23.6164 0 0 0 0 0 0
1525 3 C 197 -4.1623 7.20931 -23.6164 0 0 0 0 0 0
1526 3 C 197 -1.66492 5.76745 -23.6164 0 0 0 0 0 0
1527 3 C 197 -4.1623 4.32558 -23.6164 0 0 0 0 0 0
1528 3 C 197 -1.66492 8.65117 -23.6164 0 0 0 0 0 0
1535 3 C 197 -9.15705 4.32558 -23.6164 0 0 0 0 0 0
1536 3 C 197 -6.65967 2.88372 -23.6164 0 0 0 0 0 0
1537 3 C 197 -9.15705 1.44186 -23.6164 0 0 0 0 0 0
1538 3 C 197 -6.65967 5.76745 -23.6164 0 0 0 0 0 0
1618 3 C 197 -4.1623 1.44186 -23.6164 0 0 0 0 0 0
1621 3 C 197 -1.66492 2.88372 -23.6164 0 0 0 0 0 0
1466 3 C 197 -9.98951 8.65117 -21.4627 0 0 0 0 0 0
1530 3 C 197 -2.49738 7.20931 -21.4627 0 0 0 0 0 0
1539 3 C 197 -7.49213 7.20931 -21.4627 0 0 0 0 0 0
1540 3 C 197 -4.99475 5.76745 -21.4627 0 0 0 0 0 0
1541 3 C 197 -7.49213 4.32558 -21.4627 0 0 0 0 0 0
1542 3 C 197 -4.99475 8.65117 -21.4627 0 0 0 0 0 0
1543 3 C 197 -9.98951 2.88372 -21.4627 0 0 0 0 0 0
1544 3 C 197 -9.98951 5.76745 -21.4627 0 0 0 0 0 0
1622 3 C 197 -2.49738 4.32558 -21.4627 0 0 0 0 0 0
1624 3 C 197 -2.49738 1.44186 -21.4627 0 0 0 0 0 0
1634 3 C 197 -7.49213 1.44186 -21.4627 0 0 0 0 0 0
1637 3 C 197 -4.99475 2.88372 -21.4627 0 0 0 0 0 0
324 1 C 1.008 -8.38901 8.85358 -19.2559 0.00586581 0.0116144 0.00829686 0 0 0
295 2 C 15.999 -7.83871 5.59853 -19.0375 -0.000220118 0.00201373 -0.00534174 0 0 0
58 2 C 15.999 -2.66939 7.58984 -18.2557 0.00241503 -0.00325069 0.00116914 0 -1 0
137 1 C 1.008 -3.93897 9.98757 -18.7406 -9.10324e-05 0.000574452 -0.00260366 1 -1 0
36 1 C 1.008 -1.11159 5.35763 -18.6557 0.0106552 0.00665595 -0.0227739 -1 -1 0
327 1 C 1.008 -6.46388 4.24741 -18.6041 0.00915106 -0.00674129 -0.0108318 0 0 0
894 1 C 1.008 -2.60817 3.23044 -18.8302 0.0146126 -0.00637707 0.0140343 0 0 0
34 2 C 15.999 -1.27833 4.4306 -18.8261 0.0022553 0.00473732 -0.00419542 -1 -1 0
892 2 C 15.999 -3.30362 2.5731 -18.852 0.00484953 0.00440762 -0.000306122 0 0 0
297 1 C 1.008 -8.04793 6.50395 -18.808 0.0115875 0.0068725 -0.0137694 0 0 0
109 2 C 15.999 -0.394376 1.25819 -18.7579 -0.00422753 0.00150323 0.00483564 0 0 0
59 1 C 1.008 -3.41843 7.10786 -18.6063 0.00846306 -0.00976122 -0.00282919 0 -1 0
87 1 C 1.008 -9.43256 2.50559 -18.301 0.0162432 0.00510713 -0.0199505 1 -1 0
110 1 C 1.008 -1.13277 1.86656 -18.7876 -0.00645051 -0.00162391 -0.00384937 0 0 0
35 1 C 1.008 -0.407903 4.03573 -18.8777 -0.00104795 -0.00201498 -0.0083167 -1 -1 0
562 2 C 15.999 -3.59348 -0.297372 -18.7862 -0.00329209 0.00110245 0.00176872 0 0 0
86 1 C 1.008 -8.68882 1.22313 -18.6077 0.000690733 -0.00344491 -0.0219405 1 -1 0
580 2 C 15.999 -6.71181 0.5911 -18.3169 0.00522141 0.000816248 0.000283483 0 -1 0
85 2 C 15.999 -9.53845 1.65014 -18.7172 0.000249387 -4.59455e-05 -0.00527236 1 -1 0
136 2 C 15.999 -4.89056 9.97683 -18.6377 0.000292484 -0.000725119 0.000758163 1 -1 0
649 2 C 15.999 7.44951 -9.91244 -20.0944 0.000189998 0.00267973 -0.00405607 0 1 0
275 1 C 1.008 1.19888 -9.82796 -18.9341 0.00114928 -0.000815669 0.00183405 0 1 0
176 1 C 1.008 4.09006 6.67885 -17.7198 0.029761 0.0429477 0.032039 -1 -1 0
1509 3 C 197 3.32984 8.65117 -23.6164 0 0 0 0 0 0
1510 3 C 197 0.832459 7.20931 -23.6164 0 0 0 0 0 0
1577 3 C 197 5.82721 7.20931 -23.6164 0 0 0 0 0 0
1578 3 C 197 8.32459 5.76745 -23.6164 0 0 0 0 0 0
1579 3 C 197 5.82721 4.32558 -23.6164 0 0 0 0 0 0
1580 3 C 197 8.32459 8.65117 -23.6164 0 0 0 0 0 0
1598 3 C 197 0.832459 4.32558 -23.6164 0 0 0 0 0 0
1599 3 C 197 3.32984 2.88372 -23.6164 0 0 0 0 0 0
1600 3 C 197 0.832459 1.44186 -23.6164 0 0 0 0 0 0
1601 3 C 197 3.32984 5.76745 -23.6164 0 0 0 0 0 0
1667 3 C 197 5.82721 1.44186 -23.6164 0 0 0 0 0 0
1670 3 C 197 8.32459 2.88372 -23.6164 0 0 0 0 0 0
1529 3 C 197 0 8.65117 -21.4627 0 0 0 0 0 0
1581 3 C 197 9.98951 8.65117 -21.4627 0 0 0 0 0 0
1582 3 C 197 7.49213 7.20931 -21.4627 0 0 0 0 0 0
1602 3 C 197 2.49738 7.20931 -21.4627 0 0 0 0 0 0
1603 3 C 197 4.99475 5.76745 -21.4627 0 0 0 0 0 0
1604 3 C 197 2.49738 4.32558 -21.4627 0 0 0 0 0 0
1605 3 C 197 4.99475 8.65117 -21.4627 0 0 0 0 0 0
1623 3 C 197 1.77636e-15 2.88372 -21.4627 0 0 0 0 0 0
1625 3 C 197 1.77636e-15 5.76745 -21.4627 0 0 0 0 0 0
1671 3 C 197 7.49213 4.32558 -21.4627 0 0 0 0 0 0
1672 3 C 197 9.98951 2.88372 -21.4627 0 0 0 0 0 0
1673 3 C 197 7.49213 1.44186 -21.4627 0 0 0 0 0 0
1674 3 C 197 9.98951 5.76745 -21.4627 0 0 0 0 0 0
1687 3 C 197 2.49738 1.44186 -21.4627 0 0 0 0 0 0
1690 3 C 197 4.99475 2.88372 -21.4627 0 0 0 0 0 0
264 1 C 1.008 7.14979 1.99842 -19.0618 0.0203253 0.00904964 -0.00863392 -1 0 0
244 2 C 15.999 4.83979 1.02602 -18.3135 0.00197805 0.00407501 0.00536149 0 -1 0
1213 2 C 15.999 0.528778 6.47688 -18.1979 -0.000806905 0.00432899 -0.00363155 1 -1 0
262 2 C 15.999 6.72987 2.85802 -19.0305 -0.000924617 -0.00157145 -0.00189414 -1 0 0
25 2 C 15.999 8.16426 0.507452 -18.826 0.000976757 0.00384313 0.00574663 -1 0 0
1050 1 C 1.008 1.49254 3.43056 -17.4549 0.0268232 -0.018352 0.0206273 0 0 0
359 1 C 1.008 9.1424 5.10789 -19.2382 -0.0102366 0.0128277 0.0149639 -1 0 0
245 1 C 1.008 4.91782 1.77867 -18.8998 -0.0026494 -0.00231014 -0.00347182 0 -1 0
880 2 C 15.999 6.85229 5.80518 -18.1262 0.000855836 0.00394978 0.00264036 -2 0 0
882 1 C 1.008 6.05133 6.2701 -18.3682 -0.00308256 0.00235355 0.0126097 -2 0 0
26 1 C 1.008 8.98609 0.996088 -18.8714 -0.0172017 0.0347123 0.00852269 -1 0 0
358 2 C 15.999 9.55376 4.50792 -18.616 -0.000668227 0.00574007 0.00178539 -1 0 0
648 1 C 1.008 4.12087 5.26093 -18.9129 0.0117486 -0.00902318 -0.00296843 0 0 0
1214 1 C 1.008 0.686029 7.04931 -18.9488 -0.0336367 -0.0083183 -0.0201484 1 -1 0
646 2 C 15.999 4.12158 4.30898 -18.8128 0.00614879 -0.00881004 -0.000931295 0 0 0
647 1 C 1.008 4.91837 4.02137 -19.2585 -0.00944646 -0.0169121 -0.023653 0 0 0
263 1 C 1.008 7.40607 3.44315 -18.689 -0.0103849 0.0154538 -0.0123408 -1 0 0
260 1 C 1.008 8.35568 8.22287 -19.1237 0.000446261 -0.00694501 -0.0215935 0 -1 0
1039 2 C 15.999 -8.93237 -4.8624 -18.8376 -0.00348104 0.00499136 -0.00298973 0 0 0
1040 1 C 1.008 -8.76776 -5.80281 -18.7686 0.00240886 0.00581785 -0.00576793 0 0 0
362 1 C 1.008 -4.50891 -1.21125 -17.5861 -0.00375688 0.00193443 -0.00617513 0 0 0
1041 1 C 1.008 -8.3612 -4.57026 -19.548 -0.0170263 0.00784337 -0.0127102 0 0 0
399 1 C 1.008 -0.615338 -5.28447 -19.0514 -0.00567338 0.00393516 0.00661642 0 0 0
361 2 C 15.999 -5.30026 -1.54452 -17.1631 0.00105617 -0.00226111 -0.000489812 0 0 0
363 1 C 1.008 -5.63873 -2.20181 -17.771 -0.0192262 0.0211095 -0.014474 0 0 0
490 2 C 15.999 -1.07829 -1.36821 -18.5723 0.00136042 0.00177652 0.0022524 -1 1 0
18 1 C 1.008 -8.40602 -8.16741 -17.9385 0.00698858 0.00449931 0.00696261 0 0 0
16 2 C 15.999 -8.77512 -7.70884 -18.6933 0.00409187 -0.00342622 0.00356535 0 0 0
209 1 C 1.008 -6.69354 -6.91703 -18.4009 0.00440086 0.0022199 0.00633134 0 0 0
459 1 C 1.008 -8.16933 -2.28223 -18.7303 -0.0181416 -0.0020597 -0.000417635 0 0 0
371 1 C 1.008 -1.77432 -4.25338 -12.572 -0.0191862 0.00638363 0.0171036 0 1 0
148 2 C 15.999 -3.81283 -6.88962 -11.8823 -0.000186914 0.000248983 -0.000708143 0 0 0
150 1 C 1.008 -3.4385 -6.25133 -12.4895 0.0119089 0.0100221 0.0170251 0 0 0
149 1 C 1.008 -4.36641 -7.44606 -12.4302 0.00528263 0.0133569 -0.0195436 0 0 0
306 1 C 1.008 -7.43714 -4.40297 -16.0808 -3.35842e-05 -0.000318985 0.00675242 1 0 0
370 2 C 15.999 -2.28407 -4.78669 -13.1819 -0.00214736 0.00253594 0.00620912 0 1 0
372 1 C 1.008 -2.58313 -4.16875 -13.849 0.000189102 0.00185113 0.00452913 0 1 0
469 2 C 15.999 -6.77935 -0.449384 -14.7106 0.009157 0.0086167 0.00144892 1 -1 0
507 1 C 1.008 -7.0039 -4.31664 -11.4203 -0.0210031 -0.0198862 -0.0167566 0 -1 0
897 1 C 1.008 -2.09471 -2.10752 -15.079 0.0136264 0.0020943 0.00100703 0 -1 0
895 2 C 15.999 -2.47798 -1.6932 -14.3059 0.00234406 -0.000915688 -0.0029517 0 -1 0
83 1 C 1.008 -1.5718 -3.95071 -16.8428 0.00986581 0.000901395 0.018726 1 0 0
483 1 C 1.008 -5.35894 -8.67159 -14.3145 -0.00566266 0.00264193 0.00235726 1 0 0
84 1 C 1.008 -2.71482 -3.01602 -17.1771 0.0265211 0.0128893 -0.00479218 1 0 0
82 2 C 15.999 -2.27514 -3.44098 -16.4407 -0.00422997 -0.0059304 0.00272093 1 0 0
482 1 C 1.008 -5.97233 -9.46836 -13.1828 -0.0110761 -0.0150783 -0.0130473 1 0 0
481 2 C 15.999 -5.8072 -8.57183 -13.4747 -0.00499456 -0.0105579 0.00428332 1 0 0
301 2 C 15.999 -3.11135 -5.01664 -9.82861 0.00337781 0.0012255 0.00348616 -1 1 0
659 1 C 1.008 -3.81916 -8.34451 -16.605 0.0177779 -0.0275354 -0.00132149 0 0 0
302 1 C 1.008 -2.18502 -5.1336 -10.0395 0.000392843 -0.0140137 -0.00118576 -1 1 0
660 1 C 1.008 -4.76786 -9.4769 -16.936 -0.0184146 0.00116449 0.00400618 0 0 0
658 2 C 15.999 -4.48034 -8.91649 -16.2153 -0.0051447 -0.00028555 -0.000142115 0 0 0
570 1 C 1.008 -1.28323 -9.5536 -13.5269 0.00993409 -0.00199685 0.00302942 0 0 0
568 2 C 15.999 -1.11622 -8.71091 -13.949 -0.00100113 6.65839e-05 0.00283763 0 0 0
222 1 C 1.008 -5.80836 -2.68156 -12.7242 -0.0099544 0.000150695 0.00669706 0 0 0
220 2 C 15.999 -6.13527 -3.57726 -12.8084 -0.00455229 -0.00114528 -0.000523918 0 0 0
221 1 C 1.008 -5.7191 -3.91092 -13.6032 0.00274926 0.00549059 0.000506675 0 0 0
304 2 C 15.999 -8.16419 -3.8499 -15.7949 -0.0020402 0.00230117 -0.00344551 1 0 0
305 1 C 1.008 -8.61513 -3.60903 -16.6042 0.00830011 0.0013156 -0.00947762 1 0 0
569 1 C 1.008 -1.76324 -8.11835 -13.5663 0.00212369 -0.00428262 0.014837 0 0 0
241 2 C 15.999 -8.86737 -8.86319 -14.3067 -0.00797527 -0.00968936 0.00306855 0 0 0
243 1 C 1.008 -9.23156 -8.34611 -13.5882 0.00119283 -0.00272173 0.00268498 0 0 0
676 2 C 15.999 -4.53588 -1.24274 -12.4137 -0.00163954 -0.00253381 -0.00637926 -2 1 0
677 1 C 1.008 -3.81429 -1.45786 -13.0047 0.00742851 -0.00350081 0.00501694 -2 1 0
242 1 C 1.008 -8.95308 -9.77125 -14.0163 0.00755888 -0.00622036 0.0184727 0 0 0
1123 2 C 15.999 -7.24819 -8.65143 -16.7001 0.00363662 -0.00234727 -0.00345466 -1 0 0
1124 1 C 1.008 -7.43109 -8.76883 -15.768 0.00250366 0.0105479 -0.00206911 -1 0 0
474 1 C 1.008 -6.67146 8.45904 -11.4295 0.00986831 0.00754375 0.00596213 0 -1 0
896 1 C 1.008 -2.32035 -0.757531 -14.432 0.0156604 -0.0014983 0.0092111 0 -1 0
183 1 C 1.008 -4.31085 -4.36005 -15.9472 0.015534 0.0187949 0.00688228 0 0 0
181 2 C 15.999 -5.10494 -4.08544 -15.4887 0.00549104 0.00167836 -0.000259106 0 0 0
182 1 C 1.008 -5.13811 -3.13695 -15.6132 -0.00840554 0.00228026 0.0080301 0 0 0
303 1 C 1.008 -3.57365 -5.55327 -10.4725 -0.00974279 0.0279944 -0.00943808 -1 1 0
965 1 C 1.008 0.0170495 0.381365 -11.7596 -0.0161744 0.0168142 -0.0189973 0 0 0
1125 1 C 1.008 -6.29811 -8.54457 -16.7467 0.00368363 -0.00289936 -0.00377144 -1 0 0
678 1 C 1.008 -4.72794 -0.322587 -12.5944 0.0154149 0.00316555 0.00438169 -2 1 0
563 1 C 1.008 -2.67433 -0.512032 -18.9453 -0.00635184 -0.00214035 -0.0116355 0 0 0
404 1 C 1.008 -8.34433 -2.11234 -13.6702 0.0131483 0.0058604 0.0124274 -1 -1 0