1748
Atoms. Timestep: 100000
H -10.0593 -1.46121 -8.86335
O 9.57349 -0.786065 -8.47333
O 9.51704 -2.04653 -9.30995
H -8.90551 -0.318953 -4.13349
O -9.1368 -0.525094 -3.22782
O -8.62086 -1.15414 -4.50454
H 7.12619 -5.09057 -2.61169
O 6.62226 -4.51377 -2.0376
O 7.95908 -4.63594 -2.73751
H 0.52933 -3.85713 -12.9311
O 0.714397 -4.19193 -13.8085
O 1.37587 -3.87319 -12.4846
H -6.07594 0.440748 -7.03174
O -5.4643 0.607784 -7.74884
O -6.35005 -0.467793 -7.15684
H -8.77512 -7.70884 -18.6933
O -9.49088 -8.27124 -18.9894
O -8.40602 -8.16741 -17.9385
H 6.99413 6.14761 -6.46528
O 6.38481 5.60857 -5.9609
O 6.52634 6.34279 -7.27725
H 9.21591 9.80831 8.73694
O 9.14077 -9.47377 9.38769
O 9.6209 -9.75038 7.97885
H 8.16426 0.507452 -18.826
O 8.98609 0.996088 -18.8714
O 8.39282 -0.374356 -19.12
H 8.81091 -4.66854 4.78062
O 8.37487 -3.81648 4.77144
O 8.195 -5.2485 5.22844
H 6.49552 -9.82914 -9.44535
O 7.31348 9.70612 -9.66756
O 5.94699 9.46674 -9.06152
H -1.27833 4.4306 -18.8261
O -0.407903 4.03573 -18.8777
O -1.11159 5.35763 -18.6557
H 8.64539 -2.10598 -18.7141
O 9.4013 -2.47657 -19.1696
O 8.61185 -2.57756 -17.8818
H 8.65256 5.91065 8.91561
O 8.51911 5.07842 8.46194
O 7.78293 6.30946 8.94616
H 3.28048 -6.39279 -1.22925
O 4.06624 -5.92919 -0.939615
O 3.61265 -7.15639 -1.70128
H 9.89194 9.49308 -16.4793
O 9.46614 8.71882 -16.1112
O -9.75933 9.83457 -15.7641
H -3.79829 9.50012 11.5024
O -3.38828 -9.88034 10.879
O -3.48695 9.79421 12.3585
H -7.1992 7.96971 -9.53905
O -6.4341 7.46484 -9.26343
O -7.02044 8.86034 -9.2373
H -1.09774 -8.84612 2.1621
O -0.157853 -8.70395 2.27446
O -1.46646 -7.96588 2.08817
H -2.66939 7.58984 -18.2557
O -3.41843 7.10786 -18.6063
O -2.61421 7.31503 -17.3405
H -1.67336 8.94209 -12.5173
O -0.830684 8.55137 -12.2861
O -2.31213 8.46678 -11.986
H -9.52362 1.46626 10.5236
O -9.10161 0.749365 10.9971
O 9.73345 1.3719 10.7253
H 8.40044 0.523612 -8.04641
O 7.6562 0.348947 -7.47037
O 8.41663 1.47654 -8.13534
H 7.87339 0.451434 -15.8631
O 7.08799 0.964986 -15.6743
O 7.97855 0.513973 -16.8124
H 0.976848 -9.42593 -15.5612
O 0.179911 -8.9869 -15.2639
O 1.68329 -8.98875 -15.0858
H 4.61139 -5.71726 -16.5829
O 4.39936 -5.35602 -17.4436
O 5.02805 -6.55811 -16.7716
H 3.11802 -8.67005 -13.9709
O 3.31847 -7.85759 -13.5062
O 3.62841 -9.3394 -13.5151
H -2.27514 -3.44098 -16.4407
O -1.5718 -3.95071 -16.8428
O -2.71482 -3.01602 -17.1771
H -9.53845 1.65014 -18.7172
O -8.68882 1.22313 -18.6077
O -9.43256 2.50559 -18.301
H 2.29475 -7.4884 -7.89481
O 3.16815 -7.84718 -8.05188
O 2.33962 -6.59257 -8.22902
H 9.43685 -1.55002 0.0854138
O 8.56111 -1.16388 0.0706671
O 9.33681 -2.35224 0.597915
H 4.1682 -8.94997 -5.72169
O 3.94986 -9.86067 -5.91966
O 4.44586 -8.58194 -6.56055
H -0.594 -5.49368 -10.8232
O -0.3812 -5.15159 -11.6914
O 0.152003 -6.048 -10.5942
H 3.1522 -0.343557 14.1891
O 2.94498 -1.27733 14.226
O 4.0739 -0.292092 14.4422
H -9.60971 -6.42978 3.85653
O 10.0895 -6.57137 3.04579
O -10.0702 -5.71262 4.29225
H -8.67426 5.34153 -16.0173
O -9.52852 5.07083 -15.6809
O -8.73915 5.218 -16.9643
H -0.394376 1.25819 -18.7579
O -1.13277 1.86656 -18.7876
O 0.375788 1.8084 -18.9005
H -4.37647 2.39214 0.60404
O -4.96437 3.142 0.512847
O -3.50751 2.77977 0.708362
H 9.16891 2.86161 2.4436
O 8.71493 2.48672 1.68888
O 9.04522 3.80645 2.35304
H 1.64575 -5.91991 -18.6147
O 2.07343 -6.75498 -18.8044
O 2.36084 -5.28407 -18.5906
H 6.11473 -2.13572 0.999844
O 6.55239 -2.32693 0.17031
O 6.6529 -2.57097 1.66103
H -4.77884 -2.42736 -9.93114
O -4.29111 -3.25035 -9.8989
O -4.7395 -2.1609 -10.8497
H -8.39815 -8.76657 -3.47817
O -8.67005 -8.0205 -4.01266
O -8.01597 -8.37319 -2.69369
H 1.20679 0.825792 -0.664881
O 1.86646 0.136719 -0.585833
O 0.780535 0.849376 0.191846
H 4.72594 -0.922809 -14.6672
O 4.278 -1.51376 -15.2724
O 5.23785 -0.343746 -15.2319
H -4.89056 9.97683 -18.6377
O -3.93897 9.98757 -18.7406
O -5.1704 9.17375 -19.077
H 4.53801 3.98679 -1.51527
O 3.89403 4.46581 -2.03685
O 4.51173 3.09482 -1.86158
H -2.1937 5.60896 11.5284
O -2.3754 5.28345 12.4101
O -1.65415 4.92754 11.1275
H -7.08987 3.48492 -12.8181
O -7.50442 4.14366 -12.2609
O -7.82115 3.01585 -13.2199
H -3.81283 -6.88962 -11.8823
O -4.36641 -7.44606 -12.4302
O -3.4385 -6.25133 -12.4895
H -1.77474 1.27969 11.3848
O -1.37142 0.437292 11.5944
O -2.18729 1.55827 12.2024
H 5.25681 5.73763 -11.3085
O 4.66964 6.47582 -11.4714
O 4.68178 4.97257 -11.2925
H 5.09259 -7.92031 -8.01514
O 5.6033 -7.14239 -8.23931
O 5.55198 -8.64127 -8.44573
H 5.90876 1.45351 -11.463
O 5.06954 1.50394 -11.0054
O 5.76042 0.822744 -12.1675
H -3.42053 8.38211 -14.6523
O -2.95788 8.76043 -13.9046
O -3.86321 9.1255 -15.0618
H -3.20273 3.41191 -4.69971
O -2.95239 3.1384 -3.81724
O -4.04371 2.98186 -4.85474
H -5.25096 -1.35369 -0.290486
O -5.34808 -1.75282 -1.15506
O -4.32444 -1.1193 -0.237075
H 1.09705 8.65471 -11.8968
O 1.79062 8.10857 -11.5267
O 1.21939 9.50993 -11.4846
H 4.46607 7.07661 -18.5051
O 4.09006 6.67885 -17.7198
O 3.94641 7.8681 -18.6455
H -5.79681 -5.51165 -1.5635
O -6.37112 -5.11647 -0.907588
O -4.91411 -5.25846 -1.29338
H -5.10494 -4.08544 -15.4887
O -5.13811 -3.13695 -15.6132
O -4.31085 -4.36005 -15.9472
H -5.00679 -1.80162 4.04239
O -4.27353 -1.18812 3.99582
O -4.76458 -2.41274 4.73816
H 9.23742 2.54763 -13.5951
O 9.67476 1.72729 -13.8231
O 9.33952 2.61823 -12.6459
H -2.70332 2.20501 -2.19727
O -1.86181 1.9867 -2.5978
O -2.50442 2.31892 -1.26792
H 0.447578 5.04621 -9.66378
O 0.677975 4.2005 -9.27915
O 0.0183183 4.82502 -10.4902
H 3.47666 -8.05223 -18.6903
O 4.35638 -7.72298 -18.8745
O 3.55473 -8.48203 -17.8386
H -5.87038 4.19737 7.89168
O -5.68148 5.08396 8.19908
O -6.67253 4.28754 7.37723
H -1.20244 7.20247 -8.46759
O -0.528854 6.69702 -8.92261
O -1.49746 6.62785 -7.76118
H 0.365089 -6.87783 14.0062
O 0.156197 -6.65928 13.098
O 0.667039 -7.78548 13.9713
H -6.16722 -6.18881 -18.7309
O -6.69354 -6.91703 -18.4009
O -5.26548 -6.50755 -18.6922
H -4.6425 -8.06622 0.795306
O -5.2735 -8.21506 0.0910946
O -4.41232 -8.9437 1.10072
H 8.81364 -8.63899 -18.142
O 8.92956 -9.26328 -17.4257
O 9.02902 -7.78945 -17.7571
H 2.75523 7.84603 8.65559
O 2.91682 8.25176 9.50736
O 2.81241 6.90534 8.82313
H -6.13527 -3.57726 -12.8084
O -5.7191 -3.91092 -13.6032
O -5.80836 -2.68156 -12.7242
H 4.27014 -6.3279 -12.9781
O 5.00327 -6.73031 -12.5124
O 4.67453 -5.65744 -13.5287
H -3.36341 -7.32158 -18.48
O -3.17765 -8.09627 -19.0106
O -2.52082 -6.8734 -18.4064
H -9.3833 2.73867 -6.67483
O -9.44231 3.15239 -7.53599
O -8.54574 2.27547 -6.688
H 5.9414 3.01899 7.60044
O 6.7262 3.50832 7.3537
O 6.26422 2.31619 8.16444
H 6.76462 -8.74905 -15.0287
O 6.90591 -7.8028 -14.9989
O 7.53141 -9.12003 -14.592
H 0.261545 -3.37319 -2.00981
O 0.762261 -4.18611 -2.07826
O -0.588907 -3.6436 -1.66363
H -8.86737 -8.86319 -14.3067
O -8.95308 -9.77125 -14.0163
O -9.23156 -8.34611 -13.5882
H 4.83979 1.02602 -18.3135
O 4.91782 1.77867 -18.8998
O 4.89939 1.3995 -17.4342
H -5.52055 1.2167 -12.905
O -6.13819 0.966741 -13.5922
O -5.99472 1.86044 -12.3787
H 8.73296 2.05289 -11.0269
O 9.17963 1.32188 -11.4539
O 7.80557 1.91167 -11.2172
H 0.0104079 1.27021 -3.10403
O 0.31489 1.39587 -2.20529
O 0.519101 0.526916 -3.42804
H 6.20373 -7.30264 -18.6606
O 6.71344 -6.66248 -19.1572
O 6.85693 -7.90361 -18.3022
H 8.88205 7.55039 -18.6913
O 8.35568 8.22287 -19.1237
O 9.75846 7.93112 -18.6348
H 6.72987 2.85802 -19.0305
O 7.40607 3.44315 -18.689
O 7.14979 1.99842 -19.0618
H 9.5659 -0.160511 8.65858
O -9.90955 0.472818 8.57253
O 9.98253 -0.942863 9.01993
H 8.11548 -3.48352 -9.60649
O 8.02266 -3.5843 -10.5538
O 7.43577 -4.04744 -9.23741
H 0.644622 -7.14844 -0.293057
O 1.39272 -6.65521 -0.629667
O 0.913939 -7.42485 0.582896
H 0.38105 -9.70772 -18.4515
O 1.19888 -9.82796 -18.9341
O 0.654526 -9.58716 -17.5421
H -1.01975 -2.0961 2.1251
O -1.17047 -2.97171 1.76898
O -1.4468 -1.5072 1.50297
H -4.42133 6.94877 -5.5832
O -4.3112 7.76572 -5.09667
O -5.20245 6.54661 -5.20326
H -4.08161 4.38939 -10.1729
O -3.29883 3.92082 -9.88317
O -4.8019 3.7831 -10.0002
H 6.03952 -4.84793 -14.326
O 6.84554 -4.45512 -14.661
O 5.61529 -5.22122 -15.0986
H -1.93709 0.27044 -7.95501
O -2.81464 0.120485 -8.30664
O -1.38137 -0.352958 -8.42275
H 6.35007 5.2904 -0.0728105
O 6.43627 5.66971 -0.947412
O 5.69221 4.60241 -0.173379
H -7.83871 5.59853 -19.0375
O -8.56269 5.31965 -19.5981
O -8.04793 6.50395 -18.808
H 8.37679 -1.69514 -14.0555
O 8.05082 -0.915459 -14.5051
O 9.14904 -1.39172 -13.5783
H -3.11135 -5.01664 -9.82861
O -2.18502 -5.1336 -10.0395
O -3.57365 -5.55327 -10.4725
H -8.16419 -3.8499 -15.7949
O -8.61513 -3.60903 -16.6042
O -7.43714 -4.40297 -16.0808
H -9.68199 -0.612808 -15.8207
O -9.55053 -0.895991 -16.7255
O 9.62427 -0.24041 -15.8115
H -2.28343 -9.87987 -19.7077
O -1.3471 -9.69765 -19.7871
O -2.32698 9.27005 -19.2331
H 2.00919 -5.23271 -15.4002
O 2.77118 -5.7203 -15.713
O 1.26704 -5.81326 -15.5687
H 7.84052 1.87508 0.38892
O 8.42627 1.5721 -0.304861
O 7.01611 1.41759 0.223774
H -3.28872 6.19376 -16.0449
O -4.22376 5.98902 -16.0489
O -3.19938 6.89497 -15.3995
H -8.52992 8.14635 -18.6265
O -8.20358 8.49488 -17.7969
O -8.38901 8.85358 -19.2559
H -5.98768 3.44438 -18.3929
O -5.64337 3.59404 -17.5124
O -6.46388 4.24741 -18.6041
H -1.88598 -8.89732 6.60794
O -1.84688 -8.12559 6.04302
O -2.26314 -9.5811 6.05438
H -6.17037 -8.85149 -10.0217
O -6.2083 -8.86958 -10.978
O -5.51719 -9.51341 -9.79492
H -9.9851 -4.79611 -14.0566
O -9.24328 -4.35853 -14.4743
O -10.0338 -4.40562 -13.1841
H -5.82646 2.41873 -5.30668
O -6.04562 1.68687 -5.88338
O -5.8618 2.04826 -4.42479
H 4.72451 2.58157 -8.47042
O 5.67479 2.49745 -8.54869
O 4.44733 1.77567 -8.03462
H -0.724758 -7.18773 -18.7752
O 0.0973554 -6.7275 -18.6062
O -0.581116 -8.06955 -18.4317
H 0.168989 -3.70587 -5.28822
O 0.3945 -3.76339 -4.35975
O -0.747455 -3.97904 -5.32997
H 1.31605 -9.371 -1.81498
O 1.07722 -8.6575 -1.22329
O 2.24912 -9.24047 -1.984
H 5.99561 4.63528 -15.526
O 5.57637 5.34251 -15.0358
O 5.80907 4.83564 -16.4433
H 3.89509 -3.58342 2.13929
O 3.03784 -3.58927 1.71348
O 4.43673 -3.02594 1.58067
H 9.55376 4.50792 -18.616
O 9.1424 5.10789 -19.2382
O 9.23138 4.79122 -17.7604
H -5.30026 -1.54452 -17.1631
O -4.50891 -1.21125 -17.5861
O -5.63873 -2.20181 -17.771
H 4.52168 -3.95242 -18.8818
O 4.78321 -3.092 -18.5539
O 5.0713 -4.09265 -19.6528
H 9.08972 -3.26424 -16.1936
O 8.82402 -2.64402 -15.5147
O 9.88914 -3.66537 -15.8527
H -2.28407 -4.78669 -13.1819
O -1.77432 -4.25338 -12.572
O -2.58313 -4.16875 -13.849
H -4.41139 -7.20619 13.8081
O -4.17932 -6.73593 13.0073
O -5.18763 -6.75246 14.1364
H 6.85202 -6.44063 5.73394
O 6.87056 -7.3945 5.6564
O 5.92726 -6.21047 5.64407
H 5.6475 -9.08353 11.3615
O 6.31708 -8.40676 11.2621
O 5.50073 -9.40818 10.4731
H 8.41804 -5.52553 -18.3389
O 8.23181 -5.17095 -17.4696
O 9.28022 -5.17443 -18.5617
H 2.9231 6.63533 -16.3624
O 2.40086 7.03674 -15.6678
O 2.47883 5.80831 -16.5492
H 1.44624 -8.66301 4.90777
O 1.63516 -9.37456 5.51952
O 0.774931 -8.14082 5.34696
H -1.208 1.96399 -5.91106
O -1.87293 2.55271 -5.55396
O -1.63616 1.10841 -5.94105
H 5.32708 4.42593 -5.3384
O 5.5809 3.52755 -5.1269
O 4.37 4.41309 -5.33044
H -0.732267 -4.38217 -18.7541
O 0.118584 -3.96896 -18.9008
O -0.615338 -5.28447 -19.0514
H -2.50011 8.70725 -4.07837
O -2.29185 9.12231 -4.91538
O -3.37533 9.02894 -3.86217
H -9.05964 -1.95225 -13.0546
O -8.34433 -2.11234 -13.6702
O -9.12762 -2.7626 -12.5497
H -7.8949 -3.15029 -4.94422
O -7.35416 -3.06588 -5.72953
O -7.57723 -3.94661 -4.51856
H -7.63974 3.78822 -2.07032
O -6.92141 3.20222 -2.3087
O -7.54296 3.91493 -1.12649
H -7.40466 -2.04942 -7.51209
O -7.04624 -2.7145 -8.09982
O -8.34641 -2.06045 -7.68307
H -0.921939 8.80922 -1.85837
O -0.234241 9.46399 -1.97912
O -1.49934 8.92567 -2.61288
H -7.35482 -8.50807 5.80045
O -7.75748 -8.89031 6.58019
O -6.52648 -8.14359 6.11227
H -4.29184 -1.87553 9.20616
O -3.80222 -1.38263 8.54771
O -4.95556 -1.26181 9.5209
H -9.2074 0.747527 -12.4439
O -8.70222 0.756169 -11.6309
O -9.18112 -0.164563 -12.7331
H 8.318 -4.13726 1.61905
O 8.18965 -5.08464 1.66632
O 8.70995 -3.90587 2.4611
H 1.10293 -5.93777 -2.97542
O 1.92033 -5.88421 -2.48023
O 1.36063 -6.29243 -3.82633
H -9.3929 -7.94384 -7.04981
O -9.88891 -7.61109 -6.30183
O -8.74548 -8.5345 -6.66484
H -6.38456 6.47037 -13.5387
O -6.11823 5.6295 -13.1669
O -6.46518 6.30285 -14.4777
H -4.42093 -6.48618 -4.77672
O -3.76191 -7.12857 -4.51355
O -4.36636 -6.464 -5.73211
H 9.51798 -6.8863 -15.9477
O -9.74048 -6.9099 -16.1749
O 9.42239 -6.10059 -15.4094
H 4.08563 -8.65286 -2.75351
O 4.14562 -8.69392 -3.70795
O 4.50108 -9.46076 -2.45196
H 8.11295 2.02215 4.72502
O 8.82254 1.43773 4.99182
O 8.43533 2.44275 3.9279
H -6.07877 -4.32141 8.05246
O -6.22962 -3.37712 8.01011
O -6.94303 -4.70894 7.91422
H -4.54355 9.16425 -8.91912
O -4.30209 8.25199 -8.75877
O -4.17112 9.6446 -8.17966
H -8.63053 -1.48857 -18.459
O -7.9646 -0.801669 -18.4897
O -8.16933 -2.28223 -18.7303
H 9.55816 -3.84495 -2.92685
O -9.83179 -3.51178 -2.51655
O 9.44556 -3.30302 -3.70778
H 6.03621 0.798638 3.53695
O 5.32302 0.681758 4.16459
O 6.75181 1.16965 4.05318
H 5.18288 7.23883 -14.3631
O 4.33582 7.1346 -14.7966
O 5.09095 8.03898 -13.8459
H -6.77935 -0.449384 -14.7106
O -7.72746 -0.317802 -14.7107
O -6.59169 -0.843686 -15.5624
H -6.37633 8.83353 -12.2595
O -6.25165 8.07742 -12.8331
O -6.67146 8.45904 -11.4295
H -9.63507 5.08331 -5.12115
O 9.74052 5.11566 -4.616
O -9.48746 4.15079 -5.27877
H 1.52939 -0.539882 6.51357
O 0.763278 -0.690458 5.95982
O 1.53954 -1.28325 7.1165
H -5.8072 -8.57183 -13.4747
O -5.97233 -9.46836 -13.1828
O -5.35894 -8.67159 -14.3145
H -6.51489 0.610464 1.32072
O -6.01366 1.42197 1.40107
O -5.95909 0.0362714 0.79382
H 1.55869 -2.53615 -18.9948
O 2.29605 -2.81622 -19.5371
O 1.64077 -1.58345 -18.9516
H -1.07829 -1.36821 -18.5723
O -0.333772 -1.95798 -18.691
O -0.704657 -0.490696 -18.6535
H -8.87167 5.228 -11.4916
O -9.17573 5.43034 -12.3764
O -9.13072 5.98718 -10.9693
H 5.96496 1.86786 -4.30864
O 5.45297 1.71594 -3.51427
O 6.84509 1.56233 -4.08898
H -6.29801 4.67242 -6.97617
O -6.41573 5.43024 -6.40338
O -6.09509 3.95085 -6.38085
H 8.40516 -9.10343 -12.7835
O 9.30598 -8.79927 -12.8942
O 8.49119 9.95426 -12.5423
H -7.32532 -4.8145 -10.6686
O -6.85449 -5.64672 -10.7128
O -7.0039 -4.31664 -11.4203
H 4.56786 5.2583 -8.3123
O 4.22421 5.38663 -7.42818
O 4.44414 4.32493 -8.48475
H -8.91879 2.4889 7.52328
O -8.56627 3.2462 7.0559
O -8.48026 2.50642 8.37394
H 6.20243 0.20605 -6.59745
O 5.6202 -0.490365 -6.29372
O 6.26599 0.806644 -5.85483
H -8.47173 -1.16291 11.1099
O -8.75733 -1.70457 10.3741
O -8.98164 -1.48155 11.8546
H 2.26198 0.0221729 -18.7285
O 3.173 0.231833 -18.5228
O 1.7506 0.660094 -18.2307
H -8.0745 8.20416 -3.31877
O -8.48819 9.06559 -3.37375
O -8.80457 7.5933 -3.21833
H -7.89399 -9.29526 9.71322
O -7.94223 -9.66358 8.83104
O -7.43615 -9.96096 10.2265
H 7.70997 -2.45771 -6.04867
O 7.68166 -2.13304 -6.94868
O 8.01911 -3.36007 -6.12868
H -6.34244 -3.37752 -18.8452
O -6.47639 -4.32232 -18.7701
O -5.6777 -3.28286 -19.5274
H 3.09782 -4.94711 -8.3651
O 3.9944 -4.81131 -8.67159
O 2.77793 -4.06813 -8.16191
H 2.9967 7.02283 -0.50256
O 2.17334 7.13611 -0.0277115
O 3.5604 6.54427 0.105259
H 9.80402 -5.42878 9.5458
O -9.9056 -6.10237 9.06242
O 8.96676 -5.35382 9.08797
H 9.65157 6.06545 -13.6028
O 9.00212 6.45503 -14.1882
O 9.1419 5.74314 -12.8595
H -8.2121 0.489754 -9.87326
O -7.58351 0.295823 -9.17791
O -8.87546 -0.195873 -9.79517
H -1.26395 -4.59897 0.382282
O -1.67976 -4.53066 -0.477174
O -1.86175 -5.14247 0.895583
H -6.96844 6.35311 3.74547
O -7.50632 6.15168 2.97974
O -7.27926 7.20973 4.03846
H 3.72142 -5.8267 5.42592
O 4.39241 -5.27636 5.02201
O 3.6295 -5.48054 6.31359
H 2.84407 2.9398 -11.1231
O 2.69753 2.44 -10.32
O 2.03655 3.43886 -11.2459
H -3.59348 -0.297372 -18.7862
O -2.67433 -0.512032 -18.9453
O -3.71081 0.565259 -19.1841
H 1.73973 2.20391 3.78507
O 2.36741 2.90574 3.61276
O 2.19899 1.61216 4.38101
H -1.11622 -8.71091 -13.949
O -1.76324 -8.11835 -13.5663
O -1.28323 -9.5536 -13.5269
H -1.94985 2.90606 -9.01737
O -2.10684 1.99605 -8.76544
O -1.43644 3.26964 -8.29594
H 10.0787 -0.0607764 5.31576
O -10.0704 -0.378808 4.41378
O -9.29042 -0.359783 5.71116
H 3.56597 0.436872 4.80953
O 3.20575 0.181314 5.65874
O 3.57125 -0.372057 4.29783
H -6.71181 0.5911 -18.3169
O -5.94281 0.132074 -17.979
O -6.40456 1.48172 -18.4861
H -9.96896 -6.37212 -4.67221
O -9.12426 -6.05272 -4.3549
O 9.90968 -6.95882 -3.98206
H -5.43083 -2.14566 -2.93275
O -6.25947 -2.17265 -3.41113
O -4.76689 -2.35082 -3.59103
H 7.50035 -0.248515 6.463
O 8.41854 -0.0802624 6.67477
O 7.03152 0.511866 6.80688
H -2.9308 1.0086 -14.1453
O -2.54681 1.88311 -14.0819
O -3.87173 1.15168 -14.0433
H 4.36277 -8.77944 -16.2779
O 5.21364 -8.85415 -15.8459
O 3.72695 -8.81278 -15.5632
H 1.23719 7.83457 -14.5541
O 1.02012 8.54999 -15.1518
O 0.909352 8.12509 -13.703
H -7.27942 -5.06534 4.8521
O -8.00101 -5.47504 4.37493
O -6.53093 -5.13243 4.25922
H -3.43736 -3.20915 -18.9734
O -3.03649 -2.41463 -19.3259
O -2.70592 -3.8154 -18.8564
H 1.44636 4.03523 -15.6919
O 0.727042 4.10643 -15.0644
O 2.16363 3.64606 -15.1916
H -9.79521 5.94648 -2.08732
O 9.68476 5.53766 -2.5851
O -9.06492 5.33194 -2.15987
H -4.60417 6.52121 -8.59017
O -4.49919 5.63997 -8.94881
O -4.63783 6.39212 -7.64231
H 2.00681 -0.281207 10.251
O 2.60299 -0.974008 10.5353
O 1.1847 -0.471711 10.7028
H -3.76256 5.04113 -12.8649
O -3.71098 5.98926 -12.9858
O -3.91659 4.92683 -11.9271
H -9.75979 -4.02045 -11.2733
O -9.04852 -4.46992 -10.8169
O 9.9176 -3.6092 -10.5759
H 9.84978 7.67354 13.1587
O -9.41808 7.92647 13.2336
O 9.62311 7.85954 12.2475
H -7.39778 -9.80681 -19.9865
O -6.58793 -9.51854 -19.5655
O -7.79917 -9.001 -20.3118
H 0.605311 -2.88623 7.56354
O 1.39816 -3.41631 7.64507
O -0.0352634 -3.32488 8.12344
H -9.07627 8.23184 -14.2456
O -8.77653 8.17743 -13.3382
O -9.4507 7.36975 -14.4268
H 5.78258 -8.47049 -11.6753
O 6.5132 -8.70454 -12.2477
O 6.02946 -8.81616 -10.8175
H 0.749735 4.7717 1.13812
O 1.6007 4.88887 1.56044
O 0.464107 5.65969 0.923363
H 6.9103 -5.7693 -7.95936
O 7.35836 -5.53962 -7.14529
O 7.58026 -6.20286 -8.48796
H 4.12158 4.30898 -18.8128
O 4.91837 4.02137 -19.2585
O 4.12087 5.26093 -18.9129
H 7.44951 -9.91244 -20.0944
O 7.83674 -9.54646 -19.2992
O 7.3113 -9.15582 -20.6642
H -5.32417 6.94034 -18.6813
O -5.89867 6.99413 -17.9175
O -5.77312 6.34107 -19.2775
H 4.50343 9.20102 -12.3499
O 5.33751 9.54642 -12.0318
O 3.84605 9.59534 -11.7767
H -4.48034 -8.91649 -16.2153
O -3.81916 -8.34451 -16.605
O -4.76786 -9.4769 -16.936
H -5.63157 1.83322 -2.43487
O -4.74254 1.81778 -2.08046
O -6.035 1.02988 -2.10606
H 7.66463 3.59046 -7.9123
O 7.52431 4.25987 -7.24265
O 8.44157 3.88534 -8.38731
H 0.129458 0.962544 1.94677
O -0.311276 0.299249 2.47783
O 0.537248 1.54846 2.58446
H 2.53285 -6.5012 -11.0041
O 2.84912 -5.69756 -10.5914
O 2.97645 -6.52616 -11.852
H -1.8319 5.45504 -6.25713
O -2.37442 6.16844 -5.92104
O -2.27781 4.6584 -5.96944
H -4.53588 -1.24274 -12.4137
O -3.81429 -1.45786 -13.0047
O -4.72794 -0.322587 -12.5944
H -4.07756 -6.81945 -7.69163
O -3.42364 -7.43677 -8.01956
O -4.20608 -6.20129 -8.41107
H -8.52766 -4.69922 -8.23537
O -8.13821 -4.19222 -8.94777
O -8.427 -5.61149 -8.50715
H 9.22802 -8.49612 11.09
O 10.084 -8.81986 10.8093
O 9.35778 -8.23348 12.0013
H -6.81161 4.92689 13.8942
O -6.07259 5.21505 13.3584
O -6.43192 4.29928 14.5091
H 3.18522 5.09529 9.49916
O 2.34245 5.39426 9.84063
O 3.1015 4.14285 9.45371
H 5.47759 1.72645 -15.6967
O 5.89892 2.58458 -15.7449
O 4.57011 1.91764 -15.4597
H 3.02368 -2.30979 -8.06057
O 3.89983 -2.37483 -8.44052
O 3.1611 -1.89141 -7.21069
H 2.70693 7.98108 -4.03868
O 1.84754 7.69359 -4.34695
O 2.6422 7.95016 -3.08418
H 2.903 -2.55162 -15.8873
O 2.45085 -2.73762 -16.7102
O 3.04405 -3.41156 -15.4913
H -8.74979 -7.28961 -9.62122
O -8.12295 -7.99146 -9.79649
O -9.20112 -7.56469 -8.82318
H -5.24312 1.66272 9.46952
O -5.38138 2.55979 9.1656
O -4.3038 1.51441 9.36031
H 6.946 -3.25194 -12.0094
O 6.32462 -3.82135 -12.4631
O 7.17183 -2.58132 -12.654
H -5.28682 -7.46388 7.49339
O -5.20039 -6.54615 7.23545
O -5.40385 -7.43627 8.44301
H 5.50921 0.441916 0.798219
O 5.71499 -0.491764 0.752077
O 5.5033 0.640369 1.7346
H -8.24967 -5.78604 11.1535
O -8.9877 -5.44282 10.6497
O -7.66887 -5.03428 11.2708
H 0.268935 0.142631 14.2579
O 0.00341409 -0.688577 13.8645
O 1.21659 0.0643143 14.3677
H -6.66275 -0.842911 5.92332
O -6.07438 -1.36182 5.37487
O -6.1436 -0.0798133 6.1771
H -9.93549 6.74517 6.75967
O 9.59401 6.8243 6.06949
O 9.74518 6.63827 7.56429
H -8.73204 -9.03684 3.35801
O -8.20009 -9.51036 3.99757
O -8.8424 -8.16458 3.73644
H 0.466286 3.68085 14.1568
O 1.40205 3.48645 14.1041
O 0.153173 3.15561 14.8932
H 3.88138 -1.56449 -2.70301
O 3.03143 -1.23422 -2.99412
O 3.98234 -2.40084 -3.15751
H 6.68052 -1.97734 9.23463
O 6.57776 -1.09769 8.87145
O 7.32259 -2.39921 8.66366
H -7.0794 -2.5816 14.0366
O -6.62269 -3.42259 14.0171
O -6.53897 -2.02805 14.6003
H -7.18331 -6.52153 13.8531
O -7.29134 -6.23432 12.9465
O -7.38322 -7.45743 13.8339
H 5.79318 -5.56459 -0.089357
O 5.56381 -6.00636 0.72824
O 6.37258 -6.1791 -0.539804
H 6.26891 -5.25377 11.1801
O 6.97377 -5.53054 10.5946
O 6.46587 -5.68321 12.0126
H 8.63296 -1.51312 11.5163
O 8.66276 -0.565743 11.6498
O 7.91238 -1.64616 10.9004
H -4.25412 -3.37573 6.10037
O -4.69624 -3.79149 6.84057
O -3.32364 -3.42105 6.32035
H 1.7696 -6.32011 8.55246
O 1.3497 -7.154 8.34141
O 1.71433 -6.25815 9.50605
H 3.36643 -0.293614 -5.58674
O 2.60447 0.247955 -5.79252
O 3.71744 0.0827419 -4.77965
H -8.09059 -6.29212 7.56044
O -8.01434 -6.2485 6.60728
O -7.36005 -6.84657 7.83452
H -4.39837 7.87726 14.2268
O -3.72959 8.54219 14.063
O -4.49854 7.42604 13.3886
H 4.78881 0.990821 -1.85739
O 4.87747 1.04213 -0.905683
O 4.5201 0.0875352 -2.02502
H 7.26845 -9.91312 1.0653
O 6.84598 9.20896 1.02357
O 8.05104 9.92338 1.59746
H 1.6606 0.487876 -14.4691
O 2.02636 -0.231099 -14.9844
O 0.8437 0.711455 -14.9151
H 1.58675 -3.82237 0.647111
O 1.19241 -3.10318 0.153661
O 0.93167 -4.51976 0.619747
H -1.81631 5.52065 -1.02233
O -1.5174 5.4722 -1.93037
O -1.24403 6.17132 -0.61569
H -6.59932 9.01853 11.3174
O -6.90733 8.59183 12.117
O -5.64629 9.03378 11.4054
H -6.98005 8.96389 4.50196
O -6.58999 9.36626 3.72596
O -6.39001 9.20087 5.21745
H 9.34298 -4.50915 -6.69621
O 9.77277 -4.95726 -5.96772
O 9.96099 -4.58554 -7.42316
H 5.50914 -2.32901 14.3155
O 6.08493 -2.93817 14.7777
O 6.00123 -1.50849 14.2868
H -9.87914 3.57728 -9.2323
O -9.41457 4.12703 -9.86333
O 9.97825 2.8437 -9.75076
H -8.00445 8.83453 7.52138
O -7.5846 8.71321 6.66978
O -8.64349 8.12408 7.57728
H -4.81527 8.6028 6.56953
O -4.14485 8.01518 6.91806
O -4.85858 9.31966 7.20236
H 1.16571 -5.43705 3.74062
O 2.09198 -5.40562 3.97992
O 1.09797 -4.87464 2.96904
H -4.82582 4.19034 4.79397
O -5.57767 4.03601 4.22201
O -4.58466 5.10248 4.63246
H 2.77497 2.42589 10.4409
O 2.86066 1.51778 10.7311
O 2.02135 2.76263 10.9256
H 7.18394 -7.81979 -3.65801
O 6.49679 -7.91902 -4.31696
O 7.09302 -6.91794 -3.3504
H -5.14713 2.84643 14.1962
O -5.67331 2.85855 13.3967
O -5.51904 2.13498 14.7175
H -1.93319 8.30629 9.21277
O -2.16951 9.23061 9.13516
O -2.39713 8.00473 9.99383
H 9.62769 8.82131 -0.678807
O 9.49538 7.8733 -0.677769
O 9.11432 9.13446 -1.42354
H -4.09354 7.49916 1.1213
O -3.64931 6.65479 1.04429
O -3.95767 7.92012 0.27244
H -5.47356 9.73528 2.33684
O -5.0568 9.03999 1.82781
O -6.38498 9.7335 2.04435
H -2.49317 9.56424 -6.90075
O -2.21319 8.72298 -7.2615
O -1.70925 -9.86751 -6.93407
H 3.2327 -5.53412 11.3078
O 3.41867 -5.67855 12.2355
O 4.08768 -5.58673 10.8806
H -6.97879 6.2251 -4.88545
O -7.17537 7.13603 -4.66683
O -7.79783 5.75716 -4.72286
H -8.37604 -9.64824 14.0635
O -8.03668 -9.4028 13.2028
O -7.63058 9.93002 14.5097
H -2.65092 1.04228 8.68455
O -2.0204 1.1178 9.40077
O -2.7321 1.93218 8.34145
H 8.71582 -7.11008 1.9041
O 8.72959 -7.02605 0.950695
O 7.83648 -7.43104 2.10405
H -2.6117 4.82035 14.1206
O -2.61868 3.86981 14.0082
O -3.25117 4.98473 14.8136
H 2.75135 1.85018 7.80264
O 2.92471 1.91538 8.74175
O 2.09829 1.15447 7.72689
H 5.98889 5.94281 8.73532
O 5.58618 5.77639 9.58759
O 5.43794 5.4683 8.1128
H -0.831469 2.07198 6.04006
O -1.16627 1.3839 5.465
O 0.0659598 1.80401 6.23766
H 0.35601 7.38919 0.621914
O 0.0834595 7.88545 1.39371
O -0.0140768 7.8722 -0.116982
H 0.152368 -9.40057 -7.49424
O -0.381979 -9.36654 -8.28768
O 0.799817 -8.70528 -7.61093
H -2.58033 -5.70028 6.71241
O -3.01168 -6.29432 6.09817
O -1.64506 -5.85073 6.57511
H -0.251971 4.3382 -3.40359
O 0.412321 4.2828 -2.71665
O -0.503971 3.42945 -3.56759
H 6.85229 5.80518 -18.1262
O 7.55746 6.32571 -18.511
O 6.05133 6.2701 -18.3682
H -8.55021 4.4996 10.5274
O -8.74996 5.384 10.2205
O -9.35524 4.00491 10.3742
H -2.49493 -8.24363 -3.83604
O -2.23215 -8.1072 -2.92579
O -1.69287 -8.5218 -4.27826
H -3.9848 6.61323 4.31923
O -3.57554 6.88516 5.14069
O -4.74493 7.18779 4.2281
H -3.30362 2.5731 -18.852
O -4.11108 3.08062 -18.9336
O -2.60817 3.23044 -18.8302
H -2.47798 -1.6932 -14.3059
O -2.32035 -0.757531 -14.432
O -2.09471 -2.10752 -15.079
H -6.53995 8.15365 -16.369
O -7.24539 7.77285 -15.8459
O -6.35182 8.99089 -15.9449
H -6.04896 8.30312 -1.30803
O -5.52474 7.50914 -1.41298
O -6.76056 8.20627 -1.94086
H -1.68785 2.98888 0.303463
O -0.80535 2.89247 0.66142
O -1.80953 3.9343 0.216332
H -9.55663 4.76166 14.1642
O -9.57949 5.71799 14.198
O -8.65711 4.55184 13.9131
H -9.16026 -0.877042 14.1279
O -8.42448 -1.48663 14.185
O -8.77803 -0.0208093 14.3202
H -2.17146 1.87223 14.1205
O -1.44268 1.27396 14.2853
O -2.68078 1.8591 14.9308
H 4.12048 -9.05392 3.79052
O 3.30739 -9.14365 4.28759
O 4.3744 -9.95283 3.58146
H -2.68279 9.88894 0.417988
O -2.24433 9.523 -0.350173
O -1.98104 -9.67709 0.920388
H 3.33062 -3.86502 -4.35405
O 2.71871 -4.60109 -4.35318
O 3.78987 -3.9357 -5.19091
H 4.32774 -8.91726 0.777573
O 4.49015 -8.02451 0.472862
O 5.13849 -9.17164 1.21827
H -5.48339 -0.297551 13.9787
O -4.6279 -0.664151 14.2022
O -5.50946 -0.315169 13.022
H -3.00772 -9.86332 3.82303
O -2.28247 -9.62435 3.24584
O -3.69376 9.80797 3.23118
H 9.78811 -7.67498 13.5945
O -10.0142 -6.80664 13.7106
O -9.77969 -8.27112 14.0142
H 8.80259 8.48027 -11.8261
O 8.69239 7.62631 -12.2442
O 9.35166 8.3043 -11.062
H -4.8294 -9.88058 -3.63629
O -5.46157 -9.53534 -3.00589
O -4.42615 -9.10294 -4.02217
H -7.31985 -2.1188 2.56027
O -6.61514 -2.15619 3.20698
O -7.34433 -1.20245 2.28472
H 8.00528 -1.07941 14.1649
O 8.86337 -1.1781 14.5775
O 8.08518 -1.5426 13.3311
H -3.30588 -5.41257 9.61444
O -4.20396 -5.16621 9.83576
O -3.23764 -5.25088 8.67346
H -8.23474 9.75281 0.865947
O -8.68625 -9.69696 1.52262
O -8.93858 9.33987 0.365622
H -0.191727 6.28332 14.0121
O 0.0245904 5.35406 13.9353
O -1.14766 6.30432 14.0566
H 8.22719 5.4445 -3.69193
O 7.44761 4.94795 -3.94079
O 7.92138 6.34818 -3.61398
H 6.07338 -7.06424 2.5525
O 5.95871 -6.1878 2.91986
O 5.51649 -7.62539 3.09215
H 0.449811 1.22635 -11.6373
O 0.0170495 0.381365 -11.7596
O 1.14721 1.23589 -12.2929
H -5.63789 -6.71252 2.80199
O -6.24959 -7.3959 3.07595
O -5.35189 -6.98224 1.92924
H -6.41972 4.15647 0.638951
O -6.99916 4.20493 1.3993
O -5.84131 4.91377 0.729358
H -7.64513 4.85656 5.91151
O -7.15582 5.09778 5.12499
O -8.34225 5.50986 5.97025
H 7.28349 -6.84258 13.3069
O 8.19848 -7.08201 13.4542
O 6.78581 -7.6077 13.5952
H 9.05232 9.18215 3.08334
O 9.89095 9.61567 3.24142
O 9.05887 8.42571 3.66984
H -5.70948 -0.575409 11.2507
O -5.62418 0.305946 10.8872
O -6.65328 -0.732031 11.2815
H 1.88139 -9.56312 14.13
O 2.68925 -9.70162 14.6243
O 1.60414 9.53775 13.8721
H 4.24239 8.89828 -8.28665
O 4.43234 8.35157 -7.52425
O 3.79612 8.31172 -8.8974
H -3.59677 -2.87837 11.9413
O -3.91989 -2.2065 11.3409
O -2.9177 -3.33633 11.4459
H -8.80795 -3.25436 6.37013
O -8.11239 -2.65593 6.09754
O -8.48191 -4.12352 6.13671
H 4.98734 8.74191 -1.34364
O 4.43578 7.99862 -1.09965
O 4.68715 9.45763 -0.783416
H -0.174042 3.88883 -11.9984
O -0.768502 3.99486 -12.7411
O 0.0125042 2.95035 -11.9724
H 3.43301 -1.94753 -12.2676
O 3.95696 -1.70255 -13.0303
O 2.6671 -1.37488 -12.3086
H -0.270116 -1.43722 11.1938
O -0.916493 -1.75007 10.5609
O 0.188946 -2.22743 11.4786
H -3.25378 5.05723 2.04131
O -3.61667 5.58422 2.75322
O -2.59883 4.50157 2.46382
H 8.73719 4.09348 -15.8669
O 7.9605 4.56261 -15.5621
O 8.85475 3.38631 -15.2326
H -0.563777 9.88588 15.1731
O 0.0602153 -9.54687 14.6963
O -0.0900635 9.07092 15.3395
H 5.68256 -1.47901 -18.594
O 5.34413 -0.60034 -18.7661
O 6.61232 -1.42568 -18.8152
H -0.270448 -2.51387 14.1743
O -0.876414 -3.24417 14.0489
O 0.558483 -2.92824 14.4139
H -4.41237 0.457168 -9.45911
O -4.58174 -0.451799 -9.70675
O -4.92383 0.974643 -10.0811
H 4.53224 7.55986 -5.9601
O 3.93102 7.53618 -5.21564
O 5.38091 7.3153 -5.59107
H 4.76809 -2.8331 -9.89539
O 4.15856 -2.66839 -10.6148
O 5.63222 -2.65842 -10.2682
H -6.87051 -3.62916 0.326766
O -6.16982 -2.98887 0.20314
O -7.30452 -3.35686 1.1353
H -2.65168 -8.85112 9.27066
O -2.41575 -8.69788 8.35574
O -3.07164 -8.0375 9.54973
H -8.93237 -4.8624 -18.8376
O -8.76776 -5.80281 -18.7686
O -8.3612 -4.57026 -19.548
H 10.0364 -0.84838 2.66082
O -9.28108 -1.20671 2.48769
O 9.83026 -0.331686 1.88186
H 2.49801 -6.24233 -5.42775
O 3.02196 -7.0392 -5.50964
O 1.96464 -6.2231 -6.22234
H 1.68733 3.02144 -18.2981