1665
Atoms. Timestep: 10
H 2.05349 0.197952 -12.3053
O 1.90431 1.15881 -12.4359
O 1.31631 -0.163051 -12.8251
H 0.810825 -0.580854 -8.27742
O 1.09254 -1.05583 -7.4706
O 0.35602 -1.30201 -8.75834
H -7.35189 -1.04991 -6.96559
O -7.10882 -1.81574 -6.40612
O -6.47775 -0.807452 -7.31741
H 4.73433 2.31132 -10.0249
O 4.23079 1.60736 -9.57609
O 4.90001 2.94459 -9.29915
H -5.84348 3.1688 -8.84019
O -6.06164 2.27164 -9.17392
O -4.86776 3.10395 -8.79382
H -8.84447 -3.00833 -13.2546
O -8.90346 -2.18406 -12.7531
O -9.72018 -3.40707 -13.0639
H -8.60375 -0.907997 -10.8054
O -8.18946 -1.75123 -10.5219
O -7.85294 -0.297488 -10.7436
H 1.75669 7.18566 -9.76889
O 2.01984 6.28103 -10.0014
O 1.23549 7.06166 -8.96108
H -0.780844 1.78549 -8.24719
O -0.33742 0.956217 -8.51518
O -0.0761748 2.14308 -7.67017
H 7.81422 -6.66822 -7.39652
O 7.98003 -6.12016 -6.59804
O 8.11997 -6.06233 -8.09041
H 2.4436 -3.89753 -8.06901
O 2.79046 -4.79454 -7.89423
O 2.20854 -3.96973 -9.01349
H -3.98716 -5.67184 -10.62
O -3.9751 -4.78705 -11.0372
O -4.43674 -6.17518 -11.3335
H 3.4974 -5.43703 -12.4717
O 4.0083 -5.62165 -11.6439
O 4.19674 -5.01888 -13.0089
H -7.49126 -3.25769 -9.95953
O -6.81364 -3.82116 -9.53256
O -7.62637 -3.75354 -10.7888
H -2.88373 -1.74024 -10.1472
O -1.98937 -2.07711 -9.91999
O -3.19514 -2.42838 -10.7748
H 8.07595 -5.08725 -5.17516
O 7.31436 -4.48469 -5.30266
O 8.18145 -5.05781 -4.21533
H -5.43416 -6.77493 -6.5811
O -5.70605 -6.29899 -7.3937
O -6.20749 -6.59756 -6.00382
H 1.67492 2.70112 -13.2987
O 1.48294 2.73776 -14.2527
O 1.16117 3.47431 -12.9757
H -2.97084 1.00625 -6.7725
O -3.44884 1.77085 -6.38393
O -2.26584 1.45248 -7.28852
H 4.83708 -5.74261 -10.1747
O 4.95211 -6.58648 -9.69817
O 5.16528 -5.11589 -9.49679
H -5.79485 -4.9925 -8.64871
O -5.19614 -4.42516 -8.11807
O -5.1754 -5.35065 -9.32417
H -4.38044 3.1074 -5.60004
O -4.43589 4.07336 -5.74123
O -5.29838 2.94039 -5.31553
H -8.63143 2.74393 -14.9946
O -8.84951 3.32046 -15.7405
O -8.42535 3.39364 -14.295
H 5.031 4.21589 -7.99972
O 4.05375 4.29058 -7.89066
O 5.27477 5.14287 -8.19816
H 5.28707 -7.64063 -6.42101
O 4.50351 -7.32787 -6.91189
O 6.00378 -7.36351 -7.02377
H -1.96594 -8.70864 -9.54213
O -1.85074 -9.66035 -9.35636
O -2.7269 -8.52499 -8.95609
H 3.14283 5.75775 -12.0185
O 3.60563 4.89203 -12.127
O 3.91728 6.35929 -12.0608
H 4.42301 3.43952 -12.4746
O 3.75863 2.86731 -12.8849
O 4.60404 2.96948 -11.6291
H 6.12234 2.15919 -4.42945
O 5.98765 1.64501 -5.25541
O 6.21865 3.06312 -4.80636
H 0.556565 -0.718817 -14.4808
O -0.131783 -0.0676676 -14.7343
O 1.17801 -0.644503 -15.2247
H 0.797423 -2.04178 -17.8599
O 1.51354 -1.73365 -17.2651
O 0.742271 -2.97516 -17.6236
H 7.53539 -1.15041 -6.44474
O 6.89756 -0.424563 -6.62162
O 8.01515 -1.20072 -7.28527
H 4.14131 -0.465831 -13.8958
O 3.44105 -0.227797 -13.2434
O 4.75133 -0.965117 -13.3135
H 3.70727 -2.3299 -4.18964
O 3.58888 -1.57395 -3.57769
O 3.05604 -2.10096 -4.89169
H -4.33136 0.0397375 -11.7753
O -4.55541 -0.380663 -12.6343
O -3.76804 -0.636466 -11.3474
H -3.03117 3.23249 -9.21431
O -3.03001 3.38064 -10.1809
O -2.20462 2.72 -9.08064
H -4.48004 -0.874309 -8.06766
O -3.84258 -1.14848 -8.76988
O -3.92794 -0.228491 -7.56688
H 2.40004 4.42513 -7.50179
O 2.26751 5.14624 -6.85674
O 1.93273 3.67377 -7.07944
H -2.87007 3.387 -3.31938
O -3.57451 3.94745 -2.92858
O -3.31862 3.10664 -4.14501
H 2.83659 -1.23249 -16.1675
O 3.34192 -0.878501 -15.3989
O 3.37689 -0.856131 -16.9073
H -5.62932 -0.367447 -3.90946
O -5.80128 0.42937 -3.37587
O -6.53638 -0.679955 -4.07862
H 0.536439 5.12247 -12.5868
O 1.40536 5.41651 -12.2427
O 0.0612627 5.95415 -12.6834
H -4.96465 5.11259 -2.73536
O -4.93792 5.4481 -3.65439
O -5.92683 5.11684 -2.55392
H 6.39011 -8.63353 -16.4539
O 5.72815 -8.39 -15.7704
O 7.05141 -7.93033 -16.3966
H -5.12225 -0.839377 -14.3145
O -5.74737 -0.216469 -14.748
O -5.5665 -1.68552 -14.4449
H 7.89492 4.69682 -17.4699
O 8.31331 5.57668 -17.4138
O 8.51133 4.22329 -18.0373
H -8.28154 1.22065 -5.3171
O -9.24995 1.34794 -5.38018
O -8.14274 0.388985 -5.79808
H -8.48648 4.17598 -8.41686
O -7.66904 3.67063 -8.58695
O -8.2991 4.50486 -7.51227
H 8.63725 5.23199 -2.42819
O 8.68256 4.25679 -2.45464
O 7.73598 5.37359 -2.06869
H -0.46971 4.51902 -3.89674
O -0.468436 5.37405 -3.41385
O -1.34331 4.15276 -3.62635
H 0.241816 7.98255 -14.2182
O 0.0874564 8.20838 -15.1551
O -0.347241 8.59319 -13.7574
H -6.1291 6.50447 -12.1567
O -6.01831 6.2678 -11.2114
O -6.77958 5.84066 -12.4673
H 3.04603 7.23725 -17.2005
O 3.57404 6.53331 -17.657
O 2.92765 6.81146 -16.321
H 2.55991 6.63154 -14.614
O 1.73745 7.08603 -14.3337
O 2.79567 6.14923 -13.7957
H 5.42007 -3.41968 -2.08637
O 4.87103 -3.05986 -2.80419
O 5.62626 -4.31595 -2.44384
H -6.88281 3.25736 -4.32966
O -6.56086 2.80339 -3.52144
O -7.41613 2.52285 -4.72419
H -4.28582 -8.90648 -7.97214
O -4.9815 -8.74729 -8.63766
O -4.53434 -8.2151 -7.3286
H -0.00919099 -8.26697 -4.3199
O 0.290157 -9.18567 -4.46712
O -0.973181 -8.37866 -4.38278
H 3.21703 -5.06168 -4.04363
O 2.70345 -5.1657 -3.2113
O 3.29348 -4.09218 -4.12597
H 4.22148 -0.191032 -18.208
O 4.20563 -0.432278 -19.151
O 4.51739 0.726775 -18.2428
H 0.0958527 -6.73887 -17.5756
O -0.459331 -6.70945 -16.7684
O -0.302247 -7.51035 -18.0143
H -4.39138 -3.37122 -6.92048
O -5.11792 -3.34738 -6.26045
O -4.42274 -2.45468 -7.26549
H -4.08381 -3.33785 -12.0017
O -5.05141 -3.49805 -12.0856
O -3.83506 -3.53938 -12.9315
H 1.13098 -3.14816 -13.3487
O 0.891494 -2.25731 -13.691
O 1.8102 -3.42931 -13.9922
H 0.209634 -2.98684 -2.26226
O -0.211794 -3.79052 -1.88349
O 1.04468 -2.96761 -1.75859
H 1.96761 -3.79428 -10.7838
O 1.53199 -3.37285 -11.5549
O 2.42466 -4.51471 -11.2608
H -6.72274 -3.35642 -5.4567
O -7.18088 -2.86534 -4.73435
O -7.01173 -4.26808 -5.28547
H -3.15355 -6.32755 -18.6702
O -3.4429 -6.36809 -17.7304
O -3.72717 -5.59797 -18.98
H -9.37765 -5.23016 -11.1618
O -9.05874 -5.6513 -10.3307
O -8.99531 -5.79817 -11.8579
H -8.93197 -5.66145 -15.8768
O -8.55859 -5.13175 -16.6168
O -9.4266 -4.96801 -15.4178
H 1.70089 -2.15764 -6.14446
O 2.03243 -2.79071 -6.82722
O 0.995738 -2.70494 -5.73481
H -1.26898 -5.678 -11.2596
O -2.15772 -5.721 -10.8465
O -0.700013 -6.00426 -10.5317
H -6.5539 -4.30038 -12.5149
O -7.3523 -3.97644 -12.9842
O -6.32735 -5.11639 -12.9938
H -3.71481 -4.11193 -14.5851
O -2.74353 -4.20226 -14.5035
O -3.81704 -3.71867 -15.4825
H 2.92739 -6.6109 -7.70307
O 2.25572 -6.52698 -6.99065
O 2.39736 -6.98766 -8.42014
H -3.96731 -3.12109 -17.085
O -4.39552 -3.45859 -17.8978
O -3.21784 -2.6277 -17.4786
H 5.99963 8.63579 -1.31368
O 6.18529 8.8579 -2.24996
O 6.85152 8.84454 -0.892989
H -6.27724 1.69737 -2.11954
O -5.66737 1.52934 -1.36828
O -7.14677 1.62135 -1.67907
H -0.50736 -2.8769 -9.28103
O 0.146735 -3.45665 -9.70135
O -0.856133 -3.44922 -8.55832
H -5.04093 -6.88167 -12.8505
O -5.79398 -7.48153 -12.659
O -4.2996 -7.51748 -12.8639
H -1.72953 -4.11191 -7.15107
O -2.59951 -3.68981 -6.99925
O -1.22364 -3.84894 -6.35195
H -1.24585 1.23087 -15.2558
O -2.02248 0.910394 -15.7629
O -1.68935 1.47537 -14.4061
H 5.77344 0.902058 -6.88307
O 6.35873 1.4182 -7.47666
O 4.99685 0.724068 -7.4554
H 2.70309 -6.18132 -16.8365
O 1.8129 -6.29305 -17.2353
O 2.71629 -5.24885 -16.557
H 0.18218 1.69108 -3.9537
O 0.500143 1.39367 -3.08854
O -0.0924799 2.60581 -3.78027
H 3.04634 -3.84033 -15.3142
O 3.94277 -3.96598 -14.9468
O 3.09933 -2.92654 -15.6632
H -6.13274 0.571116 -9.79061
O -5.53481 0.48821 -10.5668
O -5.65582 0.0128124 -9.14808
H 0.915249 2.72599 -16.004
O 0.480752 3.61108 -16.0214
O 0.140525 2.16048 -15.7763
H -8.15269 -1.62902 -3.85079
O -8.18947 -1.50889 -2.88066
O -9.08227 -1.43338 -4.0978
H -1.7503 -1.0547 -1.91155
O -2.4295 -1.43688 -2.50386
O -0.980506 -1.62083 -2.13323
H 2.32167 4.38393 -4.03218
O 1.36453 4.41761 -4.22134
O 2.30943 4.54061 -3.0605
H 7.58695 -3.42792 -15.7505
O 7.1757 -3.61963 -16.6271
O 8.0691 -2.60763 -15.9893
H 8.49286 2.51226 -2.92965
O 7.5524 2.55134 -3.17708
O 8.87311 2.22578 -3.78717
H 6.48478 4.95138 -15.0933
O 5.93125 4.18898 -14.8724
O 6.88246 4.69236 -15.9495
H 3.59549 0.175857 -8.59733
O 2.62521 0.0648646 -8.6179
O 3.86924 -0.619711 -9.10052
H -3.58348 4.11443 -11.8484
O -3.3278 4.94438 -12.3021
O -4.52855 4.09 -12.0429
H -8.23544 -1.07378 -17.1958
O -7.66598 -0.460331 -16.6792
O -9.09466 -0.936503 -16.7667
H -2.61164 1.81748 -13.017
O -2.84255 2.6763 -12.6142
O -3.23436 1.22335 -12.5544
H -1.84454 5.855 -6.00512
O -1.54501 6.7487 -5.7597
O -1.21638 5.29135 -5.51412
H -3.58185 6.61062 -13.2036
O -4.51983 6.69798 -12.9224
O -3.18355 7.37711 -12.7293
H 1.28861 2.13814 -6.41113
O 0.893114 1.92813 -5.5359
O 1.96171 1.44799 -6.4789
H 3.80781 3.05049 -17.0253
O 4.34116 2.59278 -16.3353
O 2.90957 2.92201 -16.6846
H 4.32773 6.34815 -4.13364
O 3.53879 5.79679 -4.33759
O 4.25436 7.04137 -4.81812
H 9.00102 7.27767 -17.323
O 9.11217 7.70578 -18.1873
O 8.19353 7.7371 -17.0004
H -7.50766 -6.20215 -4.88008
O -8.33604 -5.85783 -4.50009
O -7.31674 -6.90418 -4.22867
H 5.22152 1.71876 -15.1717
O 4.79727 0.982767 -14.686
O 6.16302 1.48343 -15.0626
H -7.77438 5.36631 -6.02358
O -7.42441 4.63446 -5.47488
O -7.80653 6.07971 -5.375
H -3.68026 3.9073 -16.0895
O -2.89601 3.42042 -15.8208
O -3.36939 4.83673 -16.048
H -6.86354 0.802395 -15.7163
O -7.54648 1.3766 -15.2997
O -6.39748 1.49383 -16.2303
H 1.27657 -6.23069 -5.53902
O 2.05398 -6.01472 -4.98298
O 0.855826 -6.97186 -5.04083
H 1.9808 -6.91844 -14.217
O 2.18371 -6.61576 -15.1274
O 2.44203 -6.24463 -13.6752
H -0.317827 5.13517 -16.0962
O -1.20726 5.54852 -16.0194
O 0.226108 5.85059 -15.7371
H -1.12825 -4.61744 -13.7616
O -0.335527 -4.05272 -13.6393
O -1.25507 -4.92368 -12.8352
H -0.0797712 -3.86034 -4.96188
O -0.00183972 -3.69662 -4.00205
O 0.32357 -4.74803 -5.07781
H -0.296218 -7.76677 -12.9552
O -0.35502 -7.03141 -12.3198
O 0.565559 -7.57475 -13.3954
H -2.67177 6.47486 -15.8039
O -2.70419 7.37965 -16.1791
O -3.02235 6.61649 -14.8977
H -4.03972 -6.53504 -16.1059
O -4.25434 -5.8694 -15.4267
O -3.16613 -6.836 -15.7816
H 5.77358 -5.78878 -3.45399
O 4.87689 -5.69296 -3.83815
O 6.14746 -6.4837 -4.01509
H 4.25292 -2.25049 -9.87929
O 3.40479 -2.70347 -10.0389
O 4.68546 -2.86273 -9.24463
H -5.96894 2.98077 -17.2037
O -5.22809 3.42404 -16.7278
O -5.44953 2.47744 -17.867
H -8.32927 -3.79136 -17.7252
O -8.15953 -2.8703 -17.4435
O -8.65243 -3.67096 -18.6218
H 5.94305 6.83114 -7.99134
O 5.88903 7.43134 -8.77032
O 6.91396 6.80327 -7.86009
H -6.57687 -8.09936 -9.4011
O -6.69762 -8.03439 -10.3777
O -6.63568 -9.07548 -9.31779
H -8.18594 4.90868 -13.1786
O -8.72507 5.18873 -12.4172
O -8.55591 5.44098 -13.9217
H -8.91061 7.60492 -1.40663
O -8.21054 7.63609 -0.719098
O -8.71522 6.73127 -1.79054
H -4.25107 6.1495 -0.29718
O -3.4672 5.62938 -0.0556408
O -4.49239 5.73185 -1.14741
H 0.121988 5.83653 -18.9315
O -0.150978 5.11673 -18.3367
O 0.921333 5.44595 -19.3439
H 2.22604 4.79293 -1.35975
O 2.05975 3.95937 -0.856432
O 2.98849 5.14258 -0.853264
H 4.45306 5.28627 -18.4235
O 4.38892 4.44803 -17.9081
O 5.32192 5.20374 -18.8535
H -8.8937 1.50598 -1.10298
O -8.81245 0.534979 -1.14062
O -9.75634 1.65377 -1.52259
H -4.59346 1.21723 -18.7103
O -4.23626 0.796318 -17.8996
O -3.74893 1.36982 -19.1954
H -2.18925 1.63489 -1.28092
O -2.33902 2.07169 -2.14343
O -1.88776 0.738813 -1.55179
H 1.17834 2.78463 -18.7718
O 1.0679 2.65458 -17.8126
O 1.13668 1.85791 -19.0945
H 3.44349 1.85144 -3.71142
O 4.37912 2.0415 -3.9138
O 3.02156 2.70851 -3.91852
H -7.83142 -1.20907 -1.12001
O -6.9179 -1.52496 -1.12566
O -7.99998 -1.14749 -0.152507
H -3.43809 0.0605583 -16.4535
O -3.90064 -0.420812 -15.7405
O -2.9596 -0.65489 -16.9231
H -3.55268 -2.13089 -3.75101
O -4.31162 -1.50896 -3.84859
O -2.97464 -1.82927 -4.49124
H -1.94564 -1.62182 -18.0665
O -2.00078 -1.3717 -19.0162
O -0.976388 -1.68739 -17.9632
H 1.24767 0.25975 -0.883208
O 2.02205 -0.15227 -1.30042
O 0.936953 -0.449132 -0.287575
H -3.27773 -4.73108 -3.06186
O -3.19653 -5.21942 -3.9064
O -3.36216 -3.80412 -3.38992
H -3.01678 -6.0431 -5.50823
O -2.49761 -5.53091 -6.15964
O -3.87801 -6.14153 -5.9682
H -1.82898 -1.15167 -5.55791
O -0.940008 -0.846242 -5.34393
O -2.21212 -0.364884 -6.00033
H 2.52848 -3.22908 -0.6534
O 2.49151 -4.16362 -0.943219
O 3.48257 -3.05271 -0.6415
H 3.76774 -0.344165 -2.1949
O 3.51541 0.47711 -2.68454
O 4.74688 -0.245965 -2.22746
H -4.69086 -4.12115 -0.746998
O -5.55074 -4.57008 -0.909629
O -4.2672 -4.20406 -1.62444
H -2.74876 -8.64208 -4.84952
O -2.71374 -7.70228 -5.13992
O -3.66576 -8.69343 -4.56405
H -1.02926 -5.2882 -1.51506
O -1.44982 -5.63504 -0.707529
O -1.81819 -5.18998 -2.08936
H 1.7748 -5.59731 -1.82196
O 0.814035 -5.74796 -1.697
O 2.16793 -6.37103 -1.36373
H 3.20618 -7.4098 -0.289361
O 3.10105 -8.36972 -0.193753
O 2.94756 -7.07281 0.596469
H -6.78645 -5.77959 -1.06508
O -6.73047 -6.6048 -1.5798
O -6.74404 -6.14465 -0.152338
H -1.75221 -8.69318 -0.0348155
O -1.73977 -9.1338 -0.901164
O -2.23057 -7.85534 -0.196984
H -2.13902 9.01673 -16.9497
O -1.23077 8.68482 -17.0829
O -2.11629 9.83273 -17.4786
H -8.47804 3.54073 -18.1412
O -7.6029 3.38628 -17.7233
O -8.64349 2.6839 -18.5768
H -8.94561 5.88259 -10.5842
O -8.83486 5.09757 -10.0091
O -8.61843 6.56457 -9.96362
H 8.6398 6.99137 -7.39612
O 8.57652 6.93119 -6.42083
O 9.06576 7.85058 -7.51892
H 8.03816 6.58396 -4.72019
O 7.49099 5.83049 -5.02565
O 8.46006 6.16875 -3.93265
H 6.30538 2.76907 0.132758
O 5.48642 2.91443 0.646801
O 6.90467 3.44487 0.510576
H 7.85343 0.93102 -14.7543
O 8.41769 1.67082 -14.4949
O 7.94269 0.330209 -13.9803
H 8.07305 -0.797858 -12.6256
O 7.16567 -1.09562 -12.381
O 8.453 -0.566775 -11.7697
H 8.18886 1.89818 -7.9178
O 8.95565 1.46087 -8.33143
O 8.28284 2.81942 -8.24864
H 6.18941 4.65756 -5.50457
O 5.46396 5.19139 -5.13299
O 5.88031 4.49564 -6.4235
H 8.61591 -0.990706 -16.5861
O 8.07971 -0.798005 -17.3635
O 8.34383 -0.273174 -15.9752
H 6.42556 -3.81849 -18.1892
O 6.1611 -3.40744 -19.0285
O 6.25537 -4.75701 -18.4034
H 5.67638 -1.97461 -12.1953
O 5.62326 -2.88307 -12.5384
O 5.182 -2.04249 -11.3453
H -9.71141 0.0921458 -8.39888
O -9.50757 -0.253573 -9.28962
O -8.89524 -0.142471 -7.9282
H 6.47016 0.00682024 -2.32805
O 7.16509 -0.664068 -2.4877
O 6.74342 0.744689 -2.89942
H 7.9185 -2.31443 -2.35808
O 7.002 -2.64123 -2.24788
O 8.3858 -3.14591 -2.10045
H 5.81596 -6.49559 -18.6706
O 6.36831 -6.95693 -18.0216
O 4.92624 -6.67084 -18.3335
H 5.56688 -4.35216 -14.0004
O 5.94859 -5.24072 -13.8105
O 6.25789 -3.99266 -14.5955
H 5.77583 -3.99264 -8.30825
O 6.75471 -4.00177 -8.42519
O 5.71931 -3.91977 -7.33487
H 6.00232 -3.29031 -5.62728
O 5.21425 -2.91013 -5.19869
O 6.51689 -2.49109 -5.86848
H -9.03163 -5.72048 -2.57624
O -8.25895 -5.44619 -2.04006
O -9.00174 -6.67936 -2.4377
H 9.38295 -8.26468 -0.00596384
O 9.41579 -9.22586 -0.115814
O 8.84442 -8.00205 -0.781542
H 6.28476 -6.92583 -13.3465
O 6.50925 -7.45353 -12.5489
O 5.54086 -7.45947 -13.7019
H -8.46279 -6.228 -8.81558
O -7.83537 -6.97048 -8.93512
O -7.90023 -5.57142 -8.3894
H -9.26656 -3.03451 -7.86705
O -8.66691 -3.16138 -8.63047
O -8.81168 -2.32156 -7.39394
H 7.80301 -7.42576 -2.00352
O 6.97651 -7.09747 -1.58759
O 7.4703 -7.76423 -2.86153
H 8.27191 -6.70521 -16.9872
O 8.78212 -7.30388 -17.5891
O 8.57265 -5.83471 -17.2974
H -8.87543 -6.87131 -13.364
O -9.81149 -7.10056 -13.5673
O -8.62672 -6.5193 -14.2451
H 5.1473 7.57003 -12.3153
O 5.87651 7.46877 -12.9655
O 5.65691 7.84683 -11.5273
H -8.71205 -9.04392 -5.80687
O -9.65607 -9.16906 -6.05067
O -8.55373 -8.15607 -6.14625
H -7.70488 5.07346 -1.91771
O -8.07602 4.32443 -2.39706
O -7.85935 4.82924 -0.989479
H -4.51011 5.86426 -5.39521
O -4.76538 6.69442 -5.84213
O -3.54166 5.87458 -5.55087
H -0.326224 6.96717 -2.61805
O -0.337299 6.64628 -1.68873
O 0.591073 7.31869 -2.65678
H 2.18467 8.03475 -2.75478
O 2.95084 7.46574 -2.92791
O 2.51258 8.56954 -1.99797
H 6.84284 -8.44904 -4.35858
O 6.19564 -8.23427 -5.07473
O 6.64852 -9.39497 -4.19649
H -7.1884 8.74139 -5.18023
O -7.73148 9.50222 -5.49424
O -7.41291 8.71549 -4.24289
H -4.83868 8.44587 -6.52238
O -5.69206 8.53997 -6.03795
O -4.98517 9.07667 -7.24631
H 0.102572 7.95351 -7.29336
O -0.615931 8.27985 -7.86274
O 0.0724119 8.5787 -6.54267
H 2.28745 6.80784 -6.12417
O 1.46424 7.16514 -6.51638
O 2.89993 7.54636 -6.25979
H 4.70636 8.37071 -6.08766
O 4.68007 9.23282 -6.52899
O 5.13968 7.81208 -6.77658
H -7.70131 7.10929 -8.38529
O -7.84071 6.67455 -7.52523
O -6.91702 6.6182 -8.71449
H -5.58433 5.80473 -9.51015
O -5.68567 4.85956 -9.26657
O -4.67448 5.98431 -9.19296
H -2.94151 5.92412 -8.52363
O -2.90998 4.98507 -8.80568
O -2.52487 5.84731 -7.63897
H 0.369453 -7.12122 -9.61991
O -0.35189 -7.77687 -9.532
O 1.08441 -7.63464 -10.0439
H 5.089 -8.41528 -9.4531
O 5.74497 -8.46747 -10.185
O 4.23193 -8.41087 -9.9113
H 7.04726 -8.77854 -11.3123
O 7.60825 -9.50725 -11.6628
O 7.7122 -8.06447 -11.1748
H -7.12375 -8.41976 -12.0312
O -7.82819 -7.96717 -12.5398
O -7.3756 -9.36536 -12.1393
H -8.32723 -8.40648 -16.4758
O -7.54101 -8.01829 -16.9149
O -8.81338 -7.59422 -16.2649
H -2.83976 -8.46061 -12.1547
O -1.97367 -8.29624 -12.5802
O -2.59451 -8.33635 -11.2145
H 2.61889 -8.26554 -10.7801
O 2.76662 -7.90583 -11.6641
O 2.69157 -9.23916 -10.9406
H 4.34279 -8.41591 -14.5114
O 3.43615 -8.07442 -14.4973
O 4.18449 -9.36888 -14.7459
H -9.03303 6.28658 -15.4101
O -9.79682 6.304 -16.0044
O -8.62304 7.14596 -15.6336
H -6.17283 -7.24997 -17.6853
O -5.71307 -7.86275 -18.2916
O -5.47078 -7.05788 -17.0203
H -1.44426 -6.83116 -15.2965
O -1.10341 -7.45077 -14.6249
O -1.30923 -5.98364 -14.8175
H 0.350427 7.88794 -17.1028
O 1.32033 7.85871 -17.1977
O 0.110971 7.20945 -17.7725
H 7.21261 7.38669 -14.0991
O 7.06171 6.44773 -14.355
O 7.16846 7.81686 -14.9761
H -7.23341 -8.08224 -2.64269
O -7.73934 -8.89818 -2.74526
O -6.45211 -8.40687 -2.13994
H -5.07047 -8.6959 -1.04229
O -4.13222 -8.5102 -0.948909
O -5.05959 -9.67142 -1.21271
H -6.83117 7.47979 -18.1735
O -7.29411 8.01689 -17.4926
O -6.71244 6.64275 -17.7128
H 6.00761 5.93093 -1.9355
O 5.43537 5.96765 -2.72827
O 5.96565 6.86061 -1.63547
H 8.59462 -3.52146 -13.1686
O 8.42465 -2.57628 -13.0098
O 8.29555 -3.61489 -14.0945
H 9.15813 1.48063 -5.36631
O 8.72049 1.63481 -6.23119
O 9.03389 0.521686 -5.23376
H 8.92562 4.48992 -8.60695
O 9.88515 4.32591 -8.53799
O 8.84325 5.35714 -8.15758
H 8.34293 -6.35211 -11.2925
O 9.2376 -5.9731 -11.1957
O 7.94439 -5.70258 -11.885
H 9.32986 -1.15358 -4.37556
O 8.8944 -1.61018 -3.62302
O 8.74032 -1.41505 -5.11275
H 8.42817 8.96298 -12.1843
O 8.09541 8.49077 -12.9741
O 8.50733 8.20303 -11.5722
H 8.53903 6.64193 -10.7498
O 8.10436 5.88664 -10.3271
O 9.47924 6.37409 -10.694
H 8.73437 -4.82014 -1.92462
O 9.65627 -5.06189 -2.15816
O 8.34739 -5.70901 -1.82824
H 8.48373 -3.99972 -8.65168
O 8.85418 -3.97861 -9.54384
O 9.27383 -3.71978 -8.13499
H 8.83063 -7.19179 -14.3567
O 7.94208 -7.10295 -13.9815
O 8.67428 -6.99732 -15.3
H 8.7779 -9.04511 -6.37256
O 8.2222 -8.84898 -5.59867
O 8.48426 -8.32378 -6.97058
H -2.26313 8.59151 -8.88041
O -2.43056 7.62579 -8.94213
O -3.05674 8.87229 -8.39001
H 6.74137 8.64344 -16.5123
O 5.79432 8.50971 -16.3343
O 6.74165 9.63495 -16.5478
H 0.447583 9.02392 -4.71536
O 1.16458 8.71787 -4.11918
O -0.326748 8.58656 -4.32666
H -6.41063 9.22727 -9.48512
O -6.69154 9.07593 -10.4116
O -6.91703 8.52631 -9.02852
H -2.41958 8.60146 -5.16678
O -2.39746 9.58007 -5.14119
O -3.28611 8.46186 -5.60281
H -2.1594 9.11488 -2.28513
O -1.55724 8.35581 -2.20728
O -2.533 8.95096 -3.16343
H 8.90309 8.95305 -1.14283
O 9.75958 8.46723 -1.16299
O 8.7613 9.07844 -2.08971
H 6.55004 8.77825 -4.01461
O 5.85173 8.59473 -4.67472
O 7.18526 8.06493 -4.2527
H 5.75219 8.74921 -9.88235
O 6.27012 9.57145 -9.91725
O 4.85374 9.09398 -10.0385
H -7.68179 8.81987 -11.9493
O -8.57624 8.55331 -12.1822
O -7.146 8.03952 -12.2185
H -8.47667 8.82734 -16.4103
O -8.27327 9.79236 -16.3729
O -9.43808 8.8642 -16.4766
H -2.63627 8.74791 -11.8674
O -2.85423 9.68035 -12.0678
O -2.43206 8.77744 -10.9204
H 3.17783 9.10688 -11.0675
O 3.66762 8.54419 -11.6977
O 2.60916 8.44321 -10.6123
H 4.03782 8.99763 -15.2891
O 3.5666 8.64716 -16.0559
O 3.85344 8.30507 -14.6303
H -5.21493 8.64915 -1.54377
O -4.4667 8.05297 -1.37961
O -5.89555 8.21908 -0.986077
H 3.38642 9.20858 -0.527535
O 3.24218 8.65015 0.260551
O 4.34235 9.06597 -0.695447
H 2.07067 0.22911 6.54618
O 1.91065 1.18549 6.39085
O 1.33398 -0.148506 6.03626
H 0.806386 -0.567827 10.5563
O 1.08462 -1.0442 11.3636
O 0.357279 -1.28875 10.0702
H -7.34868 -1.03398 11.8746
O -7.11282 -1.81661 12.414
O -6.47063 -0.782517 11.5395
H 4.73377 2.3272 8.80552
O 4.23026 1.62262 9.25329
O 4.89407 2.96121 9.53186
H -5.84269 3.16591 10.0194
O -6.06014 2.27011 9.68119
O -4.86872 3.09432 10.0862
H -8.82647 -3.00367 5.60825
O -8.90966 -2.17266 6.09433
O -9.70463 -3.4076 5.77559
H -8.60135 -0.895567 8.07139
O -8.19088 -1.74666 8.33536
O -7.84434 -0.292231 8.13326
H 1.80169 7.18458 9.10073
O 2.01661 6.28117 8.81906
O 1.24992 7.04213 9.88438
H -0.780046 1.78888 10.6245
O -0.332342 0.963638 10.3493
O -0.0758437 2.14339 11.2044
H 7.81107 -6.70511 11.3992
O 7.97643 -6.11073 12.1649
O 8.11097 -6.13886 10.6717
H 2.45528 -3.90961 10.777
O 2.80245 -4.80652 10.951
O 2.21618 -3.98156 9.83348
H -3.9867 -5.66336 8.2227
O -3.96789 -4.781 7.8004
O -4.43855 -6.16714 7.5117
H 3.50199 -5.42517 6.38728
O 4.02831 -5.62656 7.20177
O 4.19396 -5.00646 5.84143
H -7.49422 -3.26084 8.88166
O -6.82286 -3.83263 9.30736
O -7.63633 -3.75401 8.05198
H -2.88932 -1.74514 8.69317
O -1.98829 -2.06926 8.91191
O -3.1923 -2.4322 8.05986
H 8.03126 -5.08561 13.5749
O 7.31768 -4.43515 13.4095
O 7.88395 -5.27288 14.5091
H -5.45726 -6.76694 12.274
O -5.73092 -6.29044 11.4603
O -6.22849 -6.58917 12.8532
H 1.62914 2.69473 5.50675
O 1.44033 2.75822 4.55315
O 1.12859 3.46617 5.85212
H -2.98793 1.01979 12.0798
O -3.47164 1.77767 12.4749
O -2.2815 1.47385 11.573
H 4.8539 -5.76313 8.66807
O 4.98497 -6.59946 9.15176
O 5.17608 -5.12393 9.33783
H -5.79992 -4.99874 10.1951
O -5.2094 -4.42158 10.7242
O -5.17586 -5.34812 9.51931
H -4.41921 3.10062 13.2685
O -4.47638 4.06729 13.126
O -5.33432 2.93193 13.5537
H -8.65648 2.68485 3.90866
O -8.84132 3.1875 3.09762
O -8.46257 3.39145 4.5534
H 5.02333 4.22974 10.8358
O 4.04613 4.2912 10.9552
O 5.2538 5.16002 10.6387
H 5.30238 -7.59358 12.4625
O 4.5104 -7.29435 11.9781
O 6.00785 -7.34149 11.8336
H -1.98139 -8.70933 9.33148
O -1.86793 -9.66313 9.5085
O -2.73942 -8.52801 9.92192
H 3.12991 5.76678 6.78388
O 3.59469 4.90091 6.68636
O 3.90377 6.36912 6.74814
H 4.46589 3.47195 6.35465
O 3.8872 2.85724 5.88522
O 4.61743 2.99964 7.20494
H 6.01533 2.2647 14.3479
O 5.92306 1.70651 13.5456
O 6.15357 3.14832 13.9407
H 0.525202 -0.705138 4.42398
O -0.141771 -0.0517227 4.12505
O 1.17789 -0.663127 3.70133
H 0.802218 -1.84803 0.923064
O 1.38658 -1.62628 1.67429
O 1.39248 -2.44944 0.417916
H 7.55529 -1.11213 12.4583
O 6.90948 -0.396042 12.2697
O 8.05426 -1.15093 11.6285
H 4.17976 -0.384059 4.96014
O 3.4727 -0.164746 5.61153
O 4.7814 -0.904196 5.53319
H 3.68433 -2.378 14.6248
O 3.6151 -1.59961 15.2181
O 3.03457 -2.13743 13.9256
H -4.32598 0.0366142 7.06463
O -4.54981 -0.392174 6.2104
O -3.76506 -0.636443 7.50102
H -3.02315 3.22237 9.66381
O -3.01495 3.36486 8.69661
O -2.19248 2.71863 9.80672
H -4.47777 -0.870363 10.7798
O -3.8395 -1.14966 10.0805
O -3.92667 -0.222039 11.2785
H 2.39847 4.41001 11.3586
O 2.26442 5.1391 11.9935
O 1.92697 3.66538 11.7878
H -2.82596 3.38584 15.5117
O -3.51293 3.95274 15.9329
O -3.31744 3.1012 14.7142
H 2.76167 -1.17557 2.76625
O 3.32304 -0.800645 3.48482
O 3.32855 -0.982662 1.97934
H -5.66901 -0.380212 14.8669
O -5.80488 0.416012 15.4124
O -6.58884 -0.666129 14.7187
H 0.512681 5.09193 6.34114
O 1.39722 5.39872 6.6275
O 0.0941626 5.90907 6.05069
H -4.90432 5.07414 16.0992
O -4.98887 5.43998 15.2008
O -5.80788 5.15528 16.4495
H 6.29764 -8.52944 2.173
O 5.69719 -8.32562 2.92406
O 6.98499 -7.85441 2.24734
H -5.11634 -0.828796 4.50866
O -5.75951 -0.223045 4.07837
O -5.55365 -1.68285 4.40849
H 8.06719 4.49423 1.33264
O 8.28569 5.44664 1.41085
O 8.94564 4.12011 1.17771
H -8.26749 1.21091 13.5356
O -9.23863 1.32322 13.4824
O -8.12019 0.383143 13.0498
H -8.49208 4.17263 10.4353
O -7.6729 3.66801 10.2715
O -8.30906 4.50805 11.3387
H 8.6472 5.11543 16.383
O 8.59261 4.14448 16.3503
O 7.74714 5.35301 16.6976
H -0.464538 4.54816 14.9165
O -0.492376 5.39562 15.4115
O -1.32645 4.15367 15.1875
H 0.262764 7.99855 4.64946
O 0.0629374 8.19607 3.716
O -0.344975 8.57969 5.1219
H -6.14139 6.50858 6.71571
O -6.04028 6.27675 7.66347
O -6.79564 5.84877 6.40269
H 3.01276 7.40752 1.60185
O 3.51908 6.72911 1.09039
O 2.91122 6.92832 2.45854
H 2.58881 6.67502 4.17748
O 1.74938 7.09439 4.46592
O 2.81538 6.15425 4.97217
H 5.6316 -3.39939 16.5972
O 4.94838 -3.03894 16.0086
O 5.75074 -4.29703 16.2118
H -6.95684 3.28855 14.5609
O -6.56904 2.81577 15.3291
O -7.46378 2.54192 14.1542
H -4.30046 -8.89693 10.8997
O -4.98541 -8.73858 10.2227
O -4.55995 -8.20171 11.5355
H -0.0265374 -8.24435 14.6182
O 0.281369 -9.15441 14.4344
O -0.987051 -8.35554 14.5116
H 3.16621 -5.08505 14.8824
O 2.63103 -5.14961 15.7048
O 3.26828 -4.11884 14.77
H 4.26676 -0.806185 0.569508
O 4.06227 -0.599168 -0.359269
O 5.19967 -0.514033 0.634282
H -0.150595 -6.73879 1.26647
O -0.686677 -6.76254 2.0871
O -0.526188 -7.50454 0.796595
H -4.4119 -3.37041 11.9182
O -5.13901 -3.3525 12.5776
O -4.442 -2.44961 11.5831
H -4.06559 -3.34175 6.82161
O -5.03278 -3.50614 6.73663
O -3.81619 -3.54104 5.89174
H 1.09618 -3.14921 5.52031
O 0.849827 -2.25474 5.19229
O 1.77831 -3.41318 4.87185
H 0.179617 -2.99678 16.3711
O -0.327167 -3.71099 16.8181
O 1.04354 -3.10409 16.7879
H 1.96428 -3.79605 8.06606
O 1.52664 -3.37663 7.29438
O 2.43148 -4.50919 7.58654
H -6.75788 -3.37105 13.3565
O -7.21902 -2.87439 14.0747
O -7.05508 -4.2788 13.528
H -3.15353 -6.30694 0.082074
O -3.42616 -6.34334 1.02542
O -3.69317 -5.54499 -0.210526
H -9.37011 -5.2389 7.67587
O -9.05996 -5.67109 8.50472
O -8.99385 -5.8057 6.97604
H -8.88164 -5.64687 2.98231
O -8.51614 -5.11338 2.24286
O -9.45675 -4.98521 3.38974
H 1.68056 -2.16106 12.6758
O 2.03454 -2.78504 11.9961
O 0.947351 -2.70577 13.0347
H -1.26617 -5.68926 7.59341
O -2.15686 -5.71899 8.00364
O -0.70249 -6.00591 8.32957
H -6.53569 -4.2962 6.32126
O -7.34169 -3.97132 5.86383
O -6.32477 -5.11861 5.84718
H -3.70927 -4.09731 4.22883
O -2.739 -4.19807 4.30719
O -3.8128 -3.71174 3.32851
H 2.94343 -6.61986 11.1518
O 2.25264 -6.55165 11.8475
O 2.44265 -7.01182 10.4212
H -3.98539 -3.1326 1.72368
O -4.40771 -3.45184 0.900691
O -3.21129 -2.66391 1.34686
H 6.07769 8.65339 17.5955
O 6.27238 8.87762 16.6631
O 6.88511 8.92827 18.0521
H -6.27174 1.66641 16.6849
O -5.64823 1.53959 17.4338
O -7.13186 1.58786 17.1414
H -0.492142 -2.86324 9.53086
O 0.175544 -3.42975 9.1125
O -0.871343 -3.46203 10.2152
H -5.04424 -6.88042 5.99257
O -5.7989 -7.47568 6.19174
O -4.30437 -7.51812 5.9892
H -1.79623 -4.16646 11.5647
O -2.66221 -3.74416 11.742
O -1.27191 -3.91447 12.3566
H -1.30017 1.20101 3.57313
O -2.063 0.866792 3.05713
O -1.7576 1.45705 4.41176
H 5.76637 0.903586 11.9521
O 6.35613 1.41805 11.3623
O 4.99189 0.726655 11.3762
H 2.37619 -6.07936 2.00998
O 1.44137 -6.12061 1.69926
O 2.46685 -5.16379 2.33672
H 0.158829 1.67624 14.9208
O 0.430683 1.37575 15.8005
O -0.145708 2.58079 15.091
H 3.02071 -3.81116 3.57651
O 3.9324 -3.91522 3.90844
O 3.03448 -2.89685 3.22648
H -6.12722 0.57517 9.05432
O -5.52921 0.488943 8.27887
O -5.65431 0.0144427 9.69791
H 0.800575 2.74334 2.81042
O 0.414244 3.65024 2.87179
O 0.0232069 2.19379 3.05575
H -8.18666 -1.64796 14.9669
O -8.19359 -1.55526 15.9404
O -9.12796 -1.46153 14.7585
H -1.85397 -1.17703 16.7847
O -2.53405 -1.54399 16.1851
O -1.06636 -1.69066 16.5115
H 2.31657 4.3979 14.7783
O 1.3523 4.43131 14.6225
O 2.34172 4.55231 15.7505
H 7.5972 -3.33704 3.1068
O 7.26491 -3.61827 2.22269
O 8.04083 -2.50058 2.84396
H 8.22999 2.34447 15.9512
O 7.34787 2.40612 15.5257
O 8.7558 2.13361 15.1504
H 6.52846 4.91954 3.72921
O 5.95972 4.20013 4.04238
O 6.9249 4.54932 2.92336
H 3.60142 0.18846 10.245
O 2.63048 0.0865787 10.2204
O 3.87048 -0.607803 9.73997
H -3.59215 4.1159 7.04991
O -3.33741 4.94754 6.59842
O -4.55354 4.15831 6.97866
H -8.29233 -1.04037 1.57069
O -7.73442 -0.449807 2.12443
O -9.16898 -0.902061 1.96742
H -2.73673 1.87002 5.73014
O -2.91036 2.69924 6.21702
O -3.29679 1.24446 6.23089
H -1.86294 5.85941 12.828
O -1.546 6.74677 13.071
O -1.25018 5.28569 13.3272
H -3.59999 6.59046 5.68713
O -4.5351 6.69896 5.97161
O -3.18678 7.36115 6.14296
H 1.28283 2.1312 12.4661
O 0.891206 1.93148 13.3452
O 1.9681 1.45187 12.4117
H 4.12134 3.24811 1.6919
O 4.41343 2.73868 2.48442
O 3.19791 2.96063 1.60022
H 4.32388 6.34666 14.6931
O 3.54939 5.78011 14.4744
O 4.2509 7.04264 14.0101
H 8.86878 7.14232 1.55897
O 9.1034 7.5926 0.736534
O 8.09988 7.68227 1.85097
H -7.5308 -6.21601 13.9823
O -8.3453 -5.86029 14.3818
O -7.34611 -6.93545 14.6182
H 5.22672 1.80913 3.68948
O 4.797 1.06427 4.15749
O 6.16537 1.55891 3.80214
H -7.79962 5.37948 12.8213
O -7.47142 4.64542 13.3808
O -7.78413 6.10809 13.4534
H -2.13747 4.1136 0.0145637
O -2.0863 3.23598 -0.415623
O -2.56766 3.8805 0.863755
H -3.41187 3.78729 2.43202
O -2.96519 3.3247 3.15363
O -3.2547 4.72951 2.67409
H -6.881 0.790641 3.09879
O -7.56317 1.3429 3.54683
O -6.42816 1.49658 2.59417
H 1.2784 -6.26182 13.3146