ITEM: TIMESTEP
10
ITEM: NUMBER OF ATOMS
1665
ITEM: BOX BOUNDS pp pp pp
-1.0093999999999999e+01 1.0093999999999999e+01
-9.9900000000000002e+00 9.9900035801999998e+00
-3.2911073999999999e+01 1.8785000000000000e+01
ITEM: ATOMS id type element mass x y z vx vy vz ix iy iz
1162 2 C 15.999 -1.69973 -8.67437 -32.8445 0 0 0 0 0 1
1423 3 C 197 -8.1564 -8.1564 -32.6256 0 0 0 0 0 0
1424 3 C 197 -6.1173 -6.1173 -32.6256 0 0 0 0 0 0
1425 3 C 197 -6.1173 -8.1564 -30.5865 0 0 0 0 0 0
1426 3 C 197 -8.1564 -6.1173 -30.5865 0 0 0 0 0 0
1427 3 C 197 -4.0782 -8.1564 -32.6256 0 0 0 0 0 0
1428 3 C 197 -2.0391 -6.1173 -32.6256 0 0 0 0 0 0
1429 3 C 197 -2.0391 -8.1564 -30.5865 0 0 0 0 0 0
1430 3 C 197 -4.0782 -6.1173 -30.5865 0 0 0 0 0 0
1441 3 C 197 -8.1564 -4.0782 -32.6256 0 0 0 0 0 0
1442 3 C 197 -6.1173 -2.0391 -32.6256 0 0 0 0 0 0
1443 3 C 197 -6.1173 -4.0782 -30.5865 0 0 0 0 0 0
1444 3 C 197 -8.1564 -2.0391 -30.5865 0 0 0 0 0 0
1445 3 C 197 -4.0782 -4.0782 -32.6256 0 0 0 0 0 0
1446 3 C 197 -2.0391 -2.0391 -32.6256 0 0 0 0 0 0
1447 3 C 197 -2.0391 -4.0782 -30.5865 0 0 0 0 0 0
1448 3 C 197 -4.0782 -2.0391 -30.5865 0 0 0 0 0 0
1459 3 C 197 -8.1564 0 -32.6256 0 0 0 0 0 0
1461 3 C 197 -6.1173 0 -30.5865 0 0 0 0 0 0
1463 3 C 197 -4.0782 0 -32.6256 0 0 0 0 0 0
1465 3 C 197 -2.0391 0 -30.5865 0 0 0 0 0 0
1504 3 C 197 -8.1564 -8.1564 -28.5474 0 0 0 0 0 0
1505 3 C 197 -6.1173 -6.1173 -28.5474 0 0 0 0 0 0
1506 3 C 197 -6.1173 -8.1564 -26.5083 0 0 0 0 0 0
1507 3 C 197 -8.1564 -6.1173 -26.5083 0 0 0 0 0 0
1508 3 C 197 -4.0782 -8.1564 -28.5474 0 0 0 0 0 0
1509 3 C 197 -2.0391 -6.1173 -28.5474 0 0 0 0 0 0
1510 3 C 197 -2.0391 -8.1564 -26.5083 0 0 0 0 0 0
1511 3 C 197 -4.0782 -6.1173 -26.5083 0 0 0 0 0 0
1522 3 C 197 -8.1564 -4.0782 -28.5474 0 0 0 0 0 0
1523 3 C 197 -6.1173 -2.0391 -28.5474 0 0 0 0 0 0
1524 3 C 197 -6.1173 -4.0782 -26.5083 0 0 0 0 0 0
1525 3 C 197 -8.1564 -2.0391 -26.5083 0 0 0 0 0 0
1526 3 C 197 -4.0782 -4.0782 -28.5474 0 0 0 0 0 0
1527 3 C 197 -2.0391 -2.0391 -28.5474 0 0 0 0 0 0
1528 3 C 197 -2.0391 -4.0782 -26.5083 0 0 0 0 0 0
1529 3 C 197 -4.0782 -2.0391 -26.5083 0 0 0 0 0 0
1540 3 C 197 -8.1564 0 -28.5474 0 0 0 0 0 0
1542 3 C 197 -6.1173 0 -26.5083 0 0 0 0 0 0
1544 3 C 197 -4.0782 0 -28.5474 0 0 0 0 0 0
1546 3 C 197 -2.0391 0 -26.5083 0 0 0 0 0 0
1431 3 C 197 0 -8.1564 -32.6256 0 0 0 0 0 0
1432 3 C 197 2.0391 -6.1173 -32.6256 0 0 0 0 0 0
1433 3 C 197 2.0391 -8.1564 -30.5865 0 0 0 0 0 0
1434 3 C 197 0 -6.1173 -30.5865 0 0 0 0 0 0
1435 3 C 197 4.0782 -8.1564 -32.6256 0 0 0 0 0 0
1436 3 C 197 6.1173 -6.1173 -32.6256 0 0 0 0 0 0
1437 3 C 197 6.1173 -8.1564 -30.5865 0 0 0 0 0 0
1438 3 C 197 4.0782 -6.1173 -30.5865 0 0 0 0 0 0
1439 3 C 197 8.1564 -8.1564 -32.6256 0 0 0 0 0 0
1440 3 C 197 8.1564 -6.1173 -30.5865 0 0 0 0 0 0
1449 3 C 197 0 -4.0782 -32.6256 0 0 0 0 0 0
1450 3 C 197 2.0391 -2.0391 -32.6256 0 0 0 0 0 0
1451 3 C 197 2.0391 -4.0782 -30.5865 0 0 0 0 0 0
1452 3 C 197 0 -2.0391 -30.5865 0 0 0 0 0 0
1453 3 C 197 4.0782 -4.0782 -32.6256 0 0 0 0 0 0
1454 3 C 197 6.1173 -2.0391 -32.6256 0 0 0 0 0 0
1455 3 C 197 6.1173 -4.0782 -30.5865 0 0 0 0 0 0
1456 3 C 197 4.0782 -2.0391 -30.5865 0 0 0 0 0 0
1457 3 C 197 8.1564 -4.0782 -32.6256 0 0 0 0 0 0
1458 3 C 197 8.1564 -2.0391 -30.5865 0 0 0 0 0 0
1467 3 C 197 0 0 -32.6256 0 0 0 0 0 0
1469 3 C 197 2.0391 0 -30.5865 0 0 0 0 0 0
1471 3 C 197 4.0782 0 -32.6256 0 0 0 0 0 0
1473 3 C 197 6.1173 0 -30.5865 0 0 0 0 0 0
1475 3 C 197 8.1564 0 -32.6256 0 0 0 0 0 0
1512 3 C 197 0 -8.1564 -28.5474 0 0 0 0 0 0
1513 3 C 197 2.0391 -6.1173 -28.5474 0 0 0 0 0 0
1514 3 C 197 2.0391 -8.1564 -26.5083 0 0 0 0 0 0
1515 3 C 197 0 -6.1173 -26.5083 0 0 0 0 0 0
1516 3 C 197 4.0782 -8.1564 -28.5474 0 0 0 0 0 0
1517 3 C 197 6.1173 -6.1173 -28.5474 0 0 0 0 0 0
1518 3 C 197 6.1173 -8.1564 -26.5083 0 0 0 0 0 0
1519 3 C 197 4.0782 -6.1173 -26.5083 0 0 0 0 0 0
1520 3 C 197 8.1564 -8.1564 -28.5474 0 0 0 0 0 0
1521 3 C 197 8.1564 -6.1173 -26.5083 0 0 0 0 0 0
1530 3 C 197 0 -4.0782 -28.5474 0 0 0 0 0 0
1531 3 C 197 2.0391 -2.0391 -28.5474 0 0 0 0 0 0
1532 3 C 197 2.0391 -4.0782 -26.5083 0 0 0 0 0 0
1533 3 C 197 0 -2.0391 -26.5083 0 0 0 0 0 0
1534 3 C 197 4.0782 -4.0782 -28.5474 0 0 0 0 0 0
1535 3 C 197 6.1173 -2.0391 -28.5474 0 0 0 0 0 0
1536 3 C 197 6.1173 -4.0782 -26.5083 0 0 0 0 0 0
1537 3 C 197 4.0782 -2.0391 -26.5083 0 0 0 0 0 0
1538 3 C 197 8.1564 -4.0782 -28.5474 0 0 0 0 0 0
1539 3 C 197 8.1564 -2.0391 -26.5083 0 0 0 0 0 0
1548 3 C 197 0 0 -28.5474 0 0 0 0 0 0
1550 3 C 197 2.0391 0 -26.5083 0 0 0 0 0 0
1552 3 C 197 4.0782 0 -28.5474 0 0 0 0 0 0
1554 3 C 197 6.1173 0 -26.5083 0 0 0 0 0 0
1556 3 C 197 8.1564 0 -28.5474 0 0 0 0 0 0
1460 3 C 197 -6.1173 2.0391 -32.6256 0 0 0 0 0 0
1462 3 C 197 -8.1564 2.0391 -30.5865 0 0 0 0 0 0
1464 3 C 197 -2.0391 2.0391 -32.6256 0 0 0 0 0 0
1466 3 C 197 -4.0782 2.0391 -30.5865 0 0 0 0 0 0
1477 3 C 197 -8.1564 4.0782 -32.6256 0 0 0 0 0 0
1478 3 C 197 -6.1173 6.1173 -32.6256 0 0 0 0 0 0
1479 3 C 197 -6.1173 4.0782 -30.5865 0 0 0 0 0 0
1480 3 C 197 -8.1564 6.1173 -30.5865 0 0 0 0 0 0
1481 3 C 197 -4.0782 4.0782 -32.6256 0 0 0 0 0 0
1482 3 C 197 -2.0391 6.1173 -32.6256 0 0 0 0 0 0
1483 3 C 197 -2.0391 4.0782 -30.5865 0 0 0 0 0 0
1484 3 C 197 -4.0782 6.1173 -30.5865 0 0 0 0 0 0
1495 3 C 197 -8.1564 8.1564 -32.6256 0 0 0 0 0 0
1496 3 C 197 -6.1173 8.1564 -30.5865 0 0 0 0 0 0
1497 3 C 197 -4.0782 8.1564 -32.6256 0 0 0 0 0 0
1498 3 C 197 -2.0391 8.1564 -30.5865 0 0 0 0 0 0
1541 3 C 197 -6.1173 2.0391 -28.5474 0 0 0 0 0 0
1543 3 C 197 -8.1564 2.0391 -26.5083 0 0 0 0 0 0
1545 3 C 197 -2.0391 2.0391 -28.5474 0 0 0 0 0 0
1547 3 C 197 -4.0782 2.0391 -26.5083 0 0 0 0 0 0
1558 3 C 197 -8.1564 4.0782 -28.5474 0 0 0 0 0 0
1559 3 C 197 -6.1173 6.1173 -28.5474 0 0 0 0 0 0
1560 3 C 197 -6.1173 4.0782 -26.5083 0 0 0 0 0 0
1561 3 C 197 -8.1564 6.1173 -26.5083 0 0 0 0 0 0
1562 3 C 197 -4.0782 4.0782 -28.5474 0 0 0 0 0 0
1563 3 C 197 -2.0391 6.1173 -28.5474 0 0 0 0 0 0
1564 3 C 197 -2.0391 4.0782 -26.5083 0 0 0 0 0 0
1565 3 C 197 -4.0782 6.1173 -26.5083 0 0 0 0 0 0
1576 3 C 197 -8.1564 8.1564 -28.5474 0 0 0 0 0 0
1577 3 C 197 -6.1173 8.1564 -26.5083 0 0 0 0 0 0
1578 3 C 197 -4.0782 8.1564 -28.5474 0 0 0 0 0 0
1579 3 C 197 -2.0391 8.1564 -26.5083 0 0 0 0 0 0
1421 1 C 1.008 3.25872 8.37088 -32.7129 0 0 0 0 0 1
1468 3 C 197 2.0391 2.0391 -32.6256 0 0 0 0 0 0
1470 3 C 197 0 2.0391 -30.5865 0 0 0 0 0 0
1472 3 C 197 6.1173 2.0391 -32.6256 0 0 0 0 0 0
1474 3 C 197 4.0782 2.0391 -30.5865 0 0 0 0 0 0
1476 3 C 197 8.1564 2.0391 -30.5865 0 0 0 0 0 0
1485 3 C 197 0 4.0782 -32.6256 0 0 0 0 0 0
1486 3 C 197 2.0391 6.1173 -32.6256 0 0 0 0 0 0
1487 3 C 197 2.0391 4.0782 -30.5865 0 0 0 0 0 0
1488 3 C 197 0 6.1173 -30.5865 0 0 0 0 0 0
1489 3 C 197 4.0782 4.0782 -32.6256 0 0 0 0 0 0
1490 3 C 197 6.1173 6.1173 -32.6256 0 0 0 0 0 0
1491 3 C 197 6.1173 4.0782 -30.5865 0 0 0 0 0 0
1492 3 C 197 4.0782 6.1173 -30.5865 0 0 0 0 0 0
1493 3 C 197 8.1564 4.0782 -32.6256 0 0 0 0 0 0
1494 3 C 197 8.1564 6.1173 -30.5865 0 0 0 0 0 0
1499 3 C 197 0 8.1564 -32.6256 0 0 0 0 0 0
1500 3 C 197 2.0391 8.1564 -30.5865 0 0 0 0 0 0
1501 3 C 197 4.0782 8.1564 -32.6256 0 0 0 0 0 0
1502 3 C 197 6.1173 8.1564 -30.5865 0 0 0 0 0 0
1503 3 C 197 8.1564 8.1564 -32.6256 0 0 0 0 0 0
1549 3 C 197 2.0391 2.0391 -28.5474 0 0 0 0 0 0
1551 3 C 197 0 2.0391 -26.5083 0 0 0 0 0 0
1553 3 C 197 6.1173 2.0391 -28.5474 0 0 0 0 0 0
1555 3 C 197 4.0782 2.0391 -26.5083 0 0 0 0 0 0
1557 3 C 197 8.1564 2.0391 -26.5083 0 0 0 0 0 0
1566 3 C 197 0 4.0782 -28.5474 0 0 0 0 0 0
1567 3 C 197 2.0391 6.1173 -28.5474 0 0 0 0 0 0
1568 3 C 197 2.0391 4.0782 -26.5083 0 0 0 0 0 0
1569 3 C 197 0 6.1173 -26.5083 0 0 0 0 0 0
1570 3 C 197 4.0782 4.0782 -28.5474 0 0 0 0 0 0
1571 3 C 197 6.1173 6.1173 -28.5474 0 0 0 0 0 0
1572 3 C 197 6.1173 4.0782 -26.5083 0 0 0 0 0 0
1573 3 C 197 4.0782 6.1173 -26.5083 0 0 0 0 0 0
1574 3 C 197 8.1564 4.0782 -28.5474 0 0 0 0 0 0
1575 3 C 197 8.1564 6.1173 -26.5083 0 0 0 0 0 0
1580 3 C 197 0 8.1564 -28.5474 0 0 0 0 0 0
1581 3 C 197 2.0391 8.1564 -26.5083 0 0 0 0 0 0
1582 3 C 197 4.0782 8.1564 -28.5474 0 0 0 0 0 0
1583 3 C 197 6.1173 8.1564 -26.5083 0 0 0 0 0 0
1584 3 C 197 8.1564 8.1564 -28.5474 0 0 0 0 0 0
202 2 C 15.999 -3.15355 -6.32755 -18.6702 0 0 0 0 0 0
204 1 C 1.008 -3.72717 -5.59797 -18.98 0 0 0 0 0 0
363 1 C 1.008 -8.65243 -3.67096 -18.6218 0 0 0 0 0 0
413 1 C 1.008 -2.00078 -1.3717 -19.0162 0 0 0 0 0 0
611 1 C 1.008 -5.71307 -7.86275 -18.2916 0 0 0 0 0 0
1585 3 C 197 -8.1564 -8.1564 -24.4692 0 0 0 0 0 0
1586 3 C 197 -6.1173 -6.1173 -24.4692 0 0 0 0 0 0
1587 3 C 197 -6.1173 -8.1564 -22.4301 0 0 0 0 0 0
1588 3 C 197 -8.1564 -6.1173 -22.4301 0 0 0 0 0 0
1589 3 C 197 -4.0782 -8.1564 -24.4692 0 0 0 0 0 0
1590 3 C 197 -2.0391 -6.1173 -24.4692 0 0 0 0 0 0
1591 3 C 197 -2.0391 -8.1564 -22.4301 0 0 0 0 0 0
1592 3 C 197 -4.0782 -6.1173 -22.4301 0 0 0 0 0 0
1603 3 C 197 -8.1564 -4.0782 -24.4692 0 0 0 0 0 0
1604 3 C 197 -6.1173 -2.0391 -24.4692 0 0 0 0 0 0
1605 3 C 197 -6.1173 -4.0782 -22.4301 0 0 0 0 0 0
1606 3 C 197 -8.1564 -2.0391 -22.4301 0 0 0 0 0 0
1607 3 C 197 -4.0782 -4.0782 -24.4692 0 0 0 0 0 0
1608 3 C 197 -2.0391 -2.0391 -24.4692 0 0 0 0 0 0
1609 3 C 197 -2.0391 -4.0782 -22.4301 0 0 0 0 0 0
1610 3 C 197 -4.0782 -2.0391 -22.4301 0 0 0 0 0 0
1621 3 C 197 -8.1564 0 -24.4692 0 0 0 0 0 0
1623 3 C 197 -6.1173 0 -22.4301 0 0 0 0 0 0
1625 3 C 197 -4.0782 0 -24.4692 0 0 0 0 0 0
1627 3 C 197 -2.0391 0 -22.4301 0 0 0 0 0 0
178 2 C 15.999 4.22148 -0.191032 -18.208 0 0 0 0 0 0
179 1 C 1.008 4.20563 -0.432278 -19.151 0 0 0 0 0 0
487 2 C 15.999 6.42556 -3.81849 -18.1892 0 0 0 0 0 0
488 1 C 1.008 6.1611 -3.40744 -19.0285 0 0 0 0 0 0
489 1 C 1.008 6.25537 -4.75701 -18.4034 0 0 0 0 0 0
502 2 C 15.999 5.81596 -6.49559 -18.6706 0 0 0 0 0 0
504 1 C 1.008 4.92624 -6.67084 -18.3335 0 0 0 0 0 0
1593 3 C 197 0 -8.1564 -24.4692 0 0 0 0 0 0
1594 3 C 197 2.0391 -6.1173 -24.4692 0 0 0 0 0 0
1595 3 C 197 2.0391 -8.1564 -22.4301 0 0 0 0 0 0
1596 3 C 197 0 -6.1173 -22.4301 0 0 0 0 0 0
1597 3 C 197 4.0782 -8.1564 -24.4692 0 0 0 0 0 0
1598 3 C 197 6.1173 -6.1173 -24.4692 0 0 0 0 0 0
1599 3 C 197 6.1173 -8.1564 -22.4301 0 0 0 0 0 0
1600 3 C 197 4.0782 -6.1173 -22.4301 0 0 0 0 0 0
1601 3 C 197 8.1564 -8.1564 -24.4692 0 0 0 0 0 0
1602 3 C 197 8.1564 -6.1173 -22.4301 0 0 0 0 0 0
1611 3 C 197 0 -4.0782 -24.4692 0 0 0 0 0 0
1612 3 C 197 2.0391 -2.0391 -24.4692 0 0 0 0 0 0
1613 3 C 197 2.0391 -4.0782 -22.4301 0 0 0 0 0 0
1614 3 C 197 0 -2.0391 -22.4301 0 0 0 0 0 0
1615 3 C 197 4.0782 -4.0782 -24.4692 0 0 0 0 0 0
1616 3 C 197 6.1173 -2.0391 -24.4692 0 0 0 0 0 0
1617 3 C 197 6.1173 -4.0782 -22.4301 0 0 0 0 0 0
1618 3 C 197 4.0782 -2.0391 -22.4301 0 0 0 0 0 0
1619 3 C 197 8.1564 -4.0782 -24.4692 0 0 0 0 0 0
1620 3 C 197 8.1564 -2.0391 -22.4301 0 0 0 0 0 0
1629 3 C 197 0 0 -24.4692 0 0 0 0 0 0
1631 3 C 197 2.0391 0 -22.4301 0 0 0 0 0 0
1633 3 C 197 4.0782 0 -24.4692 0 0 0 0 0 0
1635 3 C 197 6.1173 0 -22.4301 0 0 0 0 0 0
1637 3 C 197 8.1564 0 -24.4692 0 0 0 0 0 0
380 1 C 1.008 -0.150978 5.11673 -18.3367 0 0 0 0 0 0
391 2 C 15.999 -4.59346 1.21723 -18.7103 0 0 0 0 0 0
393 1 C 1.008 -3.74893 1.36982 -19.1954 0 0 0 0 0 0
457 2 C 15.999 -8.47804 3.54073 -18.1412 0 0 0 0 0 0
459 1 C 1.008 -8.64349 2.6839 -18.5768 0 0 0 0 0 0
628 2 C 15.999 -6.83117 7.47979 -18.1735 0 0 0 0 0 0
1622 3 C 197 -6.1173 2.0391 -24.4692 0 0 0 0 0 0
1624 3 C 197 -8.1564 2.0391 -22.4301 0 0 0 0 0 0
1626 3 C 197 -2.0391 2.0391 -24.4692 0 0 0 0 0 0
1628 3 C 197 -4.0782 2.0391 -22.4301 0 0 0 0 0 0
1639 3 C 197 -8.1564 4.0782 -24.4692 0 0 0 0 0 0
1640 3 C 197 -6.1173 6.1173 -24.4692 0 0 0 0 0 0
1641 3 C 197 -6.1173 4.0782 -22.4301 0 0 0 0 0 0
1642 3 C 197 -8.1564 6.1173 -22.4301 0 0 0 0 0 0
1643 3 C 197 -4.0782 4.0782 -24.4692 0 0 0 0 0 0
1644 3 C 197 -2.0391 6.1173 -24.4692 0 0 0 0 0 0
1645 3 C 197 -2.0391 4.0782 -22.4301 0 0 0 0 0 0
1646 3 C 197 -4.0782 6.1173 -22.4301 0 0 0 0 0 0
1657 3 C 197 -8.1564 8.1564 -24.4692 0 0 0 0 0 0
1658 3 C 197 -6.1173 8.1564 -22.4301 0 0 0 0 0 0
1659 3 C 197 -4.0782 8.1564 -24.4692 0 0 0 0 0 0
1660 3 C 197 -2.0391 8.1564 -22.4301 0 0 0 0 0 0
180 1 C 1.008 4.51739 0.726775 -18.2428 0 0 0 0 0 0
311 1 C 1.008 9.11217 7.70578 -18.1873 0 0 0 0 0 0
379 2 C 15.999 0.121988 5.83653 -18.9315 0 0 0 0 0 0
381 1 C 1.008 0.921333 5.44595 -19.3439 0 0 0 0 0 0
385 2 C 15.999 4.45306 5.28627 -18.4235 0 0 0 0 0 0
387 1 C 1.008 5.32192 5.20374 -18.8535 0 0 0 0 0 0
397 2 C 15.999 1.17834 2.78463 -18.7718 0 0 0 0 0 0
399 1 C 1.008 1.13668 1.85791 -19.0945 0 0 0 0 0 0
1630 3 C 197 2.0391 2.0391 -24.4692 0 0 0 0 0 0
1632 3 C 197 0 2.0391 -22.4301 0 0 0 0 0 0
1634 3 C 197 6.1173 2.0391 -24.4692 0 0 0 0 0 0
1636 3 C 197 4.0782 2.0391 -22.4301 0 0 0 0 0 0
1638 3 C 197 8.1564 2.0391 -22.4301 0 0 0 0 0 0
1647 3 C 197 0 4.0782 -24.4692 0 0 0 0 0 0
1648 3 C 197 2.0391 6.1173 -24.4692 0 0 0 0 0 0
1649 3 C 197 2.0391 4.0782 -22.4301 0 0 0 0 0 0
1650 3 C 197 0 6.1173 -22.4301 0 0 0 0 0 0
1651 3 C 197 4.0782 4.0782 -24.4692 0 0 0 0 0 0
1652 3 C 197 6.1173 6.1173 -24.4692 0 0 0 0 0 0
1653 3 C 197 6.1173 4.0782 -22.4301 0 0 0 0 0 0
1654 3 C 197 4.0782 6.1173 -22.4301 0 0 0 0 0 0
1655 3 C 197 8.1564 4.0782 -24.4692 0 0 0 0 0 0
1656 3 C 197 8.1564 6.1173 -22.4301 0 0 0 0 0 0
1661 3 C 197 0 8.1564 -24.4692 0 0 0 0 0 0
1662 3 C 197 2.0391 8.1564 -22.4301 0 0 0 0 0 0
1663 3 C 197 4.0782 8.1564 -24.4692 0 0 0 0 0 0
1664 3 C 197 6.1173 8.1564 -22.4301 0 0 0 0 0 0
1665 3 C 197 8.1564 8.1564 -24.4692 0 0 0 0 0 0
16 2 C 15.999 -8.84447 -3.00833 -13.2546 0 0 0 0 0 0
17 1 C 1.008 -8.90346 -2.18406 -12.7531 0 0 0 0 0 0
18 1 C 1.008 -9.72018 -3.40707 -13.0639 0 0 0 0 0 0
19 2 C 15.999 -8.60375 -0.907997 -10.8054 0 0 0 0 0 0
35 1 C 1.008 -3.9751 -4.78705 -11.0372 0 0 0 0 0 0
36 1 C 1.008 -4.43674 -6.17518 -11.3335 0 0 0 0 0 0
42 1 C 1.008 -7.62637 -3.75354 -10.7888 0 0 0 0 0 0
45 1 C 1.008 -3.19514 -2.42838 -10.7748 0 0 0 0 0 0
89 1 C 1.008 -0.131783 -0.0676676 -14.7343 0 0 0 0 0 0
104 1 C 1.008 -4.55541 -0.380663 -12.6343 0 0 0 0 0 0
105 1 C 1.008 -3.76804 -0.636466 -11.3474 0 0 0 0 0 0
133 2 C 15.999 -5.12225 -0.839377 -14.3145 0 0 0 0 0 0
134 1 C 1.008 -5.74737 -0.216469 -14.748 0 0 0 0 0 0
135 1 C 1.008 -5.5665 -1.68552 -14.4449 0 0 0 0 0 0
182 1 C 1.008 -0.459331 -6.70945 -16.7684 0 0 0 0 0 0
183 1 C 1.008 -0.302247 -7.51035 -18.0143 0 0 0 0 0 0
187 2 C 15.999 -4.08381 -3.33785 -12.0017 0 0 0 0 0 0
188 1 C 1.008 -5.05141 -3.49805 -12.0856 0 0 0 0 0 0
189 1 C 1.008 -3.83506 -3.53938 -12.9315 0 0 0 0 0 0
203 1 C 1.008 -3.4429 -6.36809 -17.7304 0 0 0 0 0 0
205 2 C 15.999 -9.37765 -5.23016 -11.1618 0 0 0 0 0 0
207 1 C 1.008 -8.99531 -5.79817 -11.8579 0 0 0 0 0 0
208 2 C 15.999 -8.93197 -5.66145 -15.8768 0 0 0 0 0 0
209 1 C 1.008 -8.55859 -5.13175 -16.6168 0 0 0 0 0 0
210 1 C 1.008 -9.4266 -4.96801 -15.4178 0 0 0 0 0 0
214 2 C 15.999 -1.26898 -5.678 -11.2596 0 0 0 0 0 0
215 1 C 1.008 -2.15772 -5.721 -10.8465 0 0 0 0 0 0
217 2 C 15.999 -6.5539 -4.30038 -12.5149 0 0 0 0 0 0
218 1 C 1.008 -7.3523 -3.97644 -12.9842 0 0 0 0 0 0
219 1 C 1.008 -6.32735 -5.11639 -12.9938 0 0 0 0 0 0
220 2 C 15.999 -3.71481 -4.11193 -14.5851 0 0 0 0 0 0
221 1 C 1.008 -2.74353 -4.20226 -14.5035 0 0 0 0 0 0
222 1 C 1.008 -3.81704 -3.71867 -15.4825 0 0 0 0 0 0
226 2 C 15.999 -3.96731 -3.12109 -17.085 0 0 0 0 0 0
227 1 C 1.008 -4.39552 -3.45859 -17.8978 0 0 0 0 0 0
228 1 C 1.008 -3.21784 -2.6277 -17.4786 0 0 0 0 0 0
238 2 C 15.999 -5.04093 -6.88167 -12.8505 0 0 0 0 0 0
239 1 C 1.008 -5.79398 -7.48153 -12.659 0 0 0 0 0 0
240 1 C 1.008 -4.2996 -7.51748 -12.8639 0 0 0 0 0 0
289 2 C 15.999 -8.23544 -1.07378 -17.1958 0 0 0 0 0 0
290 1 C 1.008 -7.66598 -0.460331 -16.6792 0 0 0 0 0 0
291 1 C 1.008 -9.09466 -0.936503 -16.7667 0 0 0 0 0 0
337 2 C 15.999 -1.12825 -4.61744 -13.7616 0 0 0 0 0 0
338 1 C 1.008 -0.335527 -4.05272 -13.6393 0 0 0 0 0 0
339 1 C 1.008 -1.25507 -4.92368 -12.8352 0 0 0 0 0 0
343 2 C 15.999 -0.296218 -7.76677 -12.9552 0 0 0 0 0 0
344 1 C 1.008 -0.35502 -7.03141 -12.3198 0 0 0 0 0 0
349 2 C 15.999 -4.03972 -6.53504 -16.1059 0 0 0 0 0 0
350 1 C 1.008 -4.25434 -5.8694 -15.4267 0 0 0 0 0 0
351 1 C 1.008 -3.16613 -6.836 -15.7816 0 0 0 0 0 0
361 2 C 15.999 -8.32927 -3.79136 -17.7252 0 0 0 0 0 0
362 1 C 1.008 -8.15953 -2.8703 -17.4435 0 0 0 0 0 0
407 1 C 1.008 -3.90064 -0.420812 -15.7405 0 0 0 0 0 0
408 1 C 1.008 -2.9596 -0.65489 -16.9231 0 0 0 0 0 0
412 2 C 15.999 -1.94564 -1.62182 -18.0665 0 0 0 0 0 0
414 1 C 1.008 -0.976388 -1.68739 -17.9632 0 0 0 0 0 0
535 2 C 15.999 -8.87543 -6.87131 -13.364 0 0 0 0 0 0
536 1 C 1.008 -9.81149 -7.10056 -13.5673 0 0 0 0 0 0
537 1 C 1.008 -8.62672 -6.5193 -14.2451 0 0 0 0 0 0
592 2 C 15.999 -7.12375 -8.41976 -12.0312 0 0 0 0 0 0
593 1 C 1.008 -7.82819 -7.96717 -12.5398 0 0 0 0 0 0
594 1 C 1.008 -7.3756 -9.36536 -12.1393 0 0 0 0 0 0
595 2 C 15.999 -8.32723 -8.40648 -16.4758 0 0 0 0 0 0
596 1 C 1.008 -7.54101 -8.01829 -16.9149 0 0 0 0 0 0
597 1 C 1.008 -8.81338 -7.59422 -16.2649 0 0 0 0 0 0
598 2 C 15.999 -2.83976 -8.46061 -12.1547 0 0 0 0 0 0
599 1 C 1.008 -1.97367 -8.29624 -12.5802 0 0 0 0 0 0
600 1 C 1.008 -2.59451 -8.33635 -11.2145 0 0 0 0 0 0
610 2 C 15.999 -6.17283 -7.24997 -17.6853 0 0 0 0 0 0
612 1 C 1.008 -5.47078 -7.05788 -17.0203 0 0 0 0 0 0
613 2 C 15.999 -1.44426 -6.83116 -15.2965 0 0 0 0 0 0
614 1 C 1.008 -1.10341 -7.45077 -14.6249 0 0 0 0 0 0
615 1 C 1.008 -1.30923 -5.98364 -14.8175 0 0 0 0 0 0
3 1 C 1.008 1.31631 -0.163051 -12.8251 0 0 0 0 0 0
37 2 C 15.999 3.4974 -5.43703 -12.4717 0 0 0 0 0 0
38 1 C 1.008 4.0083 -5.62165 -11.6439 0 0 0 0 0 0
39 1 C 1.008 4.19674 -5.01888 -13.0089 0 0 0 0 0 0
88 2 C 15.999 0.556565 -0.718817 -14.4808 0 0 0 0 0 0
90 1 C 1.008 1.17801 -0.644503 -15.2247 0 0 0 0 0 0
91 2 C 15.999 0.797423 -2.04178 -17.8599 0 0 0 0 0 0
92 1 C 1.008 1.51354 -1.73365 -17.2651 0 0 0 0 0 0
93 1 C 1.008 0.742271 -2.97516 -17.6236 0 0 0 0 0 0
97 2 C 15.999 4.14131 -0.465831 -13.8958 0 0 0 0 0 0
98 1 C 1.008 3.44105 -0.227797 -13.2434 0 0 0 0 0 0
99 1 C 1.008 4.75133 -0.965117 -13.3135 0 0 0 0 0 0
118 2 C 15.999 2.83659 -1.23249 -16.1675 0 0 0 0 0 0
119 1 C 1.008 3.34192 -0.878501 -15.3989 0 0 0 0 0 0
120 1 C 1.008 3.37689 -0.856131 -16.9073 0 0 0 0 0 0
130 2 C 15.999 6.39011 -8.63353 -16.4539 0 0 0 0 0 0
131 1 C 1.008 5.72815 -8.39 -15.7704 0 0 0 0 0 0
132 1 C 1.008 7.05141 -7.93033 -16.3966 0 0 0 0 0 0
181 2 C 15.999 0.0958527 -6.73887 -17.5756 0 0 0 0 0 0
190 2 C 15.999 1.13098 -3.14816 -13.3487 0 0 0 0 0 0
191 1 C 1.008 0.891494 -2.25731 -13.691 0 0 0 0 0 0
192 1 C 1.008 1.8102 -3.42931 -13.9922 0 0 0 0 0 0
196 2 C 15.999 1.96761 -3.79428 -10.7838 0 0 0 0 0 0
197 1 C 1.008 1.53199 -3.37285 -11.5549 0 0 0 0 0 0
198 1 C 1.008 2.42466 -4.51471 -11.2608 0 0 0 0 0 0
250 2 C 15.999 2.70309 -6.18132 -16.8365 0 0 0 0 0 0
251 1 C 1.008 1.8129 -6.29305 -17.2353 0 0 0 0 0 0
252 1 C 1.008 2.71629 -5.24885 -16.557 0 0 0 0 0 0
256 2 C 15.999 3.04634 -3.84033 -15.3142 0 0 0 0 0 0
257 1 C 1.008 3.94277 -3.96598 -14.9468 0 0 0 0 0 0
258 1 C 1.008 3.09933 -2.92654 -15.6632 0 0 0 0 0 0
274 2 C 15.999 7.58695 -3.42792 -15.7505 0 0 0 0 0 0
275 1 C 1.008 7.1757 -3.61963 -16.6271 0 0 0 0 0 0
276 1 C 1.008 8.0691 -2.60763 -15.9893 0 0 0 0 0 0
331 2 C 15.999 1.9808 -6.91844 -14.217 0 0 0 0 0 0
332 1 C 1.008 2.18371 -6.61576 -15.1274 0 0 0 0 0 0
333 1 C 1.008 2.44203 -6.24463 -13.6752 0 0 0 0 0 0
345 1 C 1.008 0.565559 -7.57475 -13.3954 0 0 0 0 0 0
475 2 C 15.999 8.07305 -0.797858 -12.6256 0 0 0 0 0 0
476 1 C 1.008 7.16567 -1.09562 -12.381 0 0 0 0 0 0
477 1 C 1.008 8.453 -0.566775 -11.7697 0 0 0 0 0 0
484 2 C 15.999 8.61591 -0.990706 -16.5861 0 0 0 0 0 0
485 1 C 1.008 8.07971 -0.798005 -17.3635 0 0 0 0 0 0
486 1 C 1.008 8.34383 -0.273174 -15.9752 0 0 0 0 0 0
490 2 C 15.999 5.67638 -1.97461 -12.1953 0 0 0 0 0 0
491 1 C 1.008 5.62326 -2.88307 -12.5384 0 0 0 0 0 0
492 1 C 1.008 5.182 -2.04249 -11.3453 0 0 0 0 0 0
503 1 C 1.008 6.36831 -6.95693 -18.0216 0 0 0 0 0 0
505 2 C 15.999 5.56688 -4.35216 -14.0004 0 0 0 0 0 0
506 1 C 1.008 5.94859 -5.24072 -13.8105 0 0 0 0 0 0
507 1 C 1.008 6.25789 -3.99266 -14.5955 0 0 0 0 0 0
520 2 C 15.999 6.28476 -6.92583 -13.3465 0 0 0 0 0 0
521 1 C 1.008 6.50925 -7.45353 -12.5489 0 0 0 0 0 0
522 1 C 1.008 5.54086 -7.45947 -13.7019 0 0 0 0 0 0
532 2 C 15.999 8.27191 -6.70521 -16.9872 0 0 0 0 0 0
533 1 C 1.008 8.78212 -7.30388 -17.5891 0 0 0 0 0 0
534 1 C 1.008 8.57265 -5.83471 -17.2974 0 0 0 0 0 0
589 2 C 15.999 7.04726 -8.77854 -11.3123 0 0 0 0 0 0
590 1 C 1.008 7.60825 -9.50725 -11.6628 0 0 0 0 0 0
591 1 C 1.008 7.7122 -8.06447 -11.1748 0 0 0 0 0 0
601 2 C 15.999 2.61889 -8.26554 -10.7801 0 0 0 0 0 0
602 1 C 1.008 2.76662 -7.90583 -11.6641 0 0 0 0 0 0
603 1 C 1.008 2.69157 -9.23916 -10.9406 0 0 0 0 0 0
604 2 C 15.999 4.34279 -8.41591 -14.5114 0 0 0 0 0 0
605 1 C 1.008 3.43615 -8.07442 -14.4973 0 0 0 0 0 0
606 1 C 1.008 4.18449 -9.36888 -14.7459 0 0 0 0 0 0
634 2 C 15.999 8.59462 -3.52146 -13.1686 0 0 0 0 0 0
635 1 C 1.008 8.42465 -2.57628 -13.0098 0 0 0 0 0 0
636 1 C 1.008 8.29555 -3.61489 -14.0945 0 0 0 0 0 0
643 2 C 15.999 8.34293 -6.35211 -11.2925 0 0 0 0 0 0
644 1 C 1.008 9.2376 -5.9731 -11.1957 0 0 0 0 0 0
645 1 C 1.008 7.94439 -5.70258 -11.885 0 0 0 0 0 0
661 2 C 15.999 8.83063 -7.19179 -14.3567 0 0 0 0 0 0
662 1 C 1.008 7.94208 -7.10295 -13.9815 0 0 0 0 0 0
663 1 C 1.008 8.67428 -6.99732 -15.3 0 0 0 0 0 0
67 2 C 15.999 -8.63143 2.74393 -14.9946 0 0 0 0 0 0
68 1 C 1.008 -8.84951 3.32046 -15.7405 0 0 0 0 0 0
69 1 C 1.008 -8.42535 3.39364 -14.295 0 0 0 0 0 0
103 2 C 15.999 -4.33136 0.0397375 -11.7753 0 0 0 0 0 0
153 1 C 1.008 -0.347241 8.59319 -13.7574 0 0 0 0 0 0
154 2 C 15.999 -6.1291 6.50447 -12.1567 0 0 0 0 0 0
155 1 C 1.008 -6.01831 6.2678 -11.2114 0 0 0 0 0 0
156 1 C 1.008 -6.77958 5.84066 -12.4673 0 0 0 0 0 0
244 2 C 15.999 -1.24585 1.23087 -15.2558 0 0 0 0 0 0
245 1 C 1.008 -2.02248 0.910394 -15.7629 0 0 0 0 0 0
246 1 C 1.008 -1.68935 1.47537 -14.4061 0 0 0 0 0 0
286 2 C 15.999 -3.58348 4.11443 -11.8484 0 0 0 0 0 0
287 1 C 1.008 -3.3278 4.94438 -12.3021 0 0 0 0 0 0
288 1 C 1.008 -4.52855 4.09 -12.0429 0 0 0 0 0 0
292 2 C 15.999 -2.61164 1.81748 -13.017 0 0 0 0 0 0
293 1 C 1.008 -2.84255 2.6763 -12.6142 0 0 0 0 0 0
294 1 C 1.008 -3.23436 1.22335 -12.5544 0 0 0 0 0 0
298 2 C 15.999 -3.58185 6.61062 -13.2036 0 0 0 0 0 0
299 1 C 1.008 -4.51983 6.69798 -12.9224 0 0 0 0 0 0
300 1 C 1.008 -3.18355 7.37711 -12.7293 0 0 0 0 0 0
322 2 C 15.999 -3.68026 3.9073 -16.0895 0 0 0 0 0 0
323 1 C 1.008 -2.89601 3.42042 -15.8208 0 0 0 0 0 0
324 1 C 1.008 -3.36939 4.83673 -16.048 0 0 0 0 0 0
325 2 C 15.999 -6.86354 0.802395 -15.7163 0 0 0 0 0 0
326 1 C 1.008 -7.54648 1.3766 -15.2997 0 0 0 0 0 0
327 1 C 1.008 -6.39748 1.49383 -16.2303 0 0 0 0 0 0
334 2 C 15.999 -0.317827 5.13517 -16.0962 0 0 0 0 0 0
335 1 C 1.008 -1.20726 5.54852 -16.0194 0 0 0 0 0 0
346 2 C 15.999 -2.67177 6.47486 -15.8039 0 0 0 0 0 0
347 1 C 1.008 -2.70419 7.37965 -16.1791 0 0 0 0 0 0
348 1 C 1.008 -3.02235 6.61649 -14.8977 0 0 0 0 0 0
358 2 C 15.999 -5.96894 2.98077 -17.2037 0 0 0 0 0 0
359 1 C 1.008 -5.22809 3.42404 -16.7278 0 0 0 0 0 0
360 1 C 1.008 -5.44953 2.47744 -17.867 0 0 0 0 0 0
370 2 C 15.999 -8.18594 4.90868 -13.1786 0 0 0 0 0 0
371 1 C 1.008 -8.72507 5.18873 -12.4172 0 0 0 0 0 0
372 1 C 1.008 -8.55591 5.44098 -13.9217 0 0 0 0 0 0
392 1 C 1.008 -4.23626 0.796318 -17.8996 0 0 0 0 0 0
406 2 C 15.999 -3.43809 0.0605583 -16.4535 0 0 0 0 0 0
454 2 C 15.999 -2.13902 9.01673 -16.9497 0 0 0 0 0 0
455 1 C 1.008 -1.23077 8.68482 -17.0829 0 0 0 0 0 0
456 1 C 1.008 -2.11629 9.83273 -17.4786 0 0 0 0 0 0
458 1 C 1.008 -7.6029 3.38628 -17.7233 0 0 0 0 0 0
607 2 C 15.999 -9.03303 6.28658 -15.4101 0 0 0 0 0 0
608 1 C 1.008 -9.79682 6.304 -16.0044 0 0 0 0 0 0
609 1 C 1.008 -8.62304 7.14596 -15.6336 0 0 0 0 0 0
629 1 C 1.008 -7.29411 8.01689 -17.4926 0 0 0 0 0 0
630 1 C 1.008 -6.71244 6.64275 -17.7128 0 0 0 0 0 0
694 2 C 15.999 -7.68179 8.81987 -11.9493 0 0 0 0 0 0
695 1 C 1.008 -8.57624 8.55331 -12.1822 0 0 0 0 0 0
696 1 C 1.008 -7.146 8.03952 -12.2185 0 0 0 0 0 0
697 2 C 15.999 -8.47667 8.82734 -16.4103 0 0 0 0 0 0
698 1 C 1.008 -8.27327 9.79236 -16.3729 0 0 0 0 0 0
699 1 C 1.008 -9.43808 8.8642 -16.4766 0 0 0 0 0 0
700 2 C 15.999 -2.63627 8.74791 -11.8674 0 0 0 0 0 0
701 1 C 1.008 -2.85423 9.68035 -12.0678 0 0 0 0 0 0
702 1 C 1.008 -2.43206 8.77744 -10.9204 0 0 0 0 0 0
1 2 C 15.999 2.05349 0.197952 -12.3053 0 0 0 0 0 0
2 1 C 1.008 1.90431 1.15881 -12.4359 0 0 0 0 0 0
52 2 C 15.999 1.67492 2.70112 -13.2987 0 0 0 0 0 0
53 1 C 1.008 1.48294 2.73776 -14.2527 0 0 0 0 0 0
54 1 C 1.008 1.16117 3.47431 -12.9757 0 0 0 0 0 0
79 2 C 15.999 3.14283 5.75775 -12.0185 0 0 0 0 0 0
80 1 C 1.008 3.60563 4.89203 -12.127 0 0 0 0 0 0
81 1 C 1.008 3.91728 6.35929 -12.0608 0 0 0 0 0 0
82 2 C 15.999 4.42301 3.43952 -12.4746 0 0 0 0 0 0
83 1 C 1.008 3.75863 2.86731 -12.8849 0 0 0 0 0 0
84 1 C 1.008 4.60404 2.96948 -11.6291 0 0 0 0 0 0
124 2 C 15.999 0.536439 5.12247 -12.5868 0 0 0 0 0 0
125 1 C 1.008 1.40536 5.41651 -12.2427 0 0 0 0 0 0
126 1 C 1.008 0.0612627 5.95415 -12.6834 0 0 0 0 0 0
136 2 C 15.999 7.89492 4.69682 -17.4699 0 0 0 0 0 0
137 1 C 1.008 8.31331 5.57668 -17.4138 0 0 0 0 0 0
138 1 C 1.008 8.51133 4.22329 -18.0373 0 0 0 0 0 0
151 2 C 15.999 0.241816 7.98255 -14.2182 0 0 0 0 0 0
152 1 C 1.008 0.0874564 8.20838 -15.1551 0 0 0 0 0 0
157 2 C 15.999 3.04603 7.23725 -17.2005 0 0 0 0 0 0
158 1 C 1.008 3.57404 6.53331 -17.657 0 0 0 0 0 0
159 1 C 1.008 2.92765 6.81146 -16.321 0 0 0 0 0 0
160 2 C 15.999 2.55991 6.63154 -14.614 0 0 0 0 0 0
161 1 C 1.008 1.73745 7.08603 -14.3337 0 0 0 0 0 0
162 1 C 1.008 2.79567 6.14923 -13.7957 0 0 0 0 0 0
262 2 C 15.999 0.915249 2.72599 -16.004 0 0 0 0 0 0
263 1 C 1.008 0.480752 3.61108 -16.0214 0 0 0 0 0 0
264 1 C 1.008 0.140525 2.16048 -15.7763 0 0 0 0 0 0
280 2 C 15.999 6.48478 4.95138 -15.0933 0 0 0 0 0 0
281 1 C 1.008 5.93125 4.18898 -14.8724 0 0 0 0 0 0
282 1 C 1.008 6.88246 4.69236 -15.9495 0 0 0 0 0 0
304 2 C 15.999 3.80781 3.05049 -17.0253 0 0 0 0 0 0
305 1 C 1.008 4.34116 2.59278 -16.3353 0 0 0 0 0 0
306 1 C 1.008 2.90957 2.92201 -16.6846 0 0 0 0 0 0
310 2 C 15.999 9.00102 7.27767 -17.323 0 0 0 0 0 0
312 1 C 1.008 8.19353 7.7371 -17.0004 0 0 0 0 0 0
316 2 C 15.999 5.22152 1.71876 -15.1717 0 0 0 0 0 0
317 1 C 1.008 4.79727 0.982767 -14.686 0 0 0 0 0 0
318 1 C 1.008 6.16302 1.48343 -15.0626 0 0 0 0 0 0
336 1 C 1.008 0.226108 5.85059 -15.7371 0 0 0 0 0 0
386 1 C 1.008 4.38892 4.44803 -17.9081 0 0 0 0 0 0
398 1 C 1.008 1.0679 2.65458 -17.8126 0 0 0 0 0 0
472 2 C 15.999 7.85343 0.93102 -14.7543 0 0 0 0 0 0
473 1 C 1.008 8.41769 1.67082 -14.4949 0 0 0 0 0 0
474 1 C 1.008 7.94269 0.330209 -13.9803 0 0 0 0 0 0
538 2 C 15.999 5.1473 7.57003 -12.3153 0 0 0 0 0 0
539 1 C 1.008 5.87651 7.46877 -12.9655 0 0 0 0 0 0
540 1 C 1.008 5.65691 7.84683 -11.5273 0 0 0 0 0 0
616 2 C 15.999 0.350427 7.88794 -17.1028 0 0 0 0 0 0
617 1 C 1.008 1.32033 7.85871 -17.1977 0 0 0 0 0 0
618 1 C 1.008 0.110971 7.20945 -17.7725 0 0 0 0 0 0
619 2 C 15.999 7.21261 7.38669 -14.0991 0 0 0 0 0 0
620 1 C 1.008 7.06171 6.44773 -14.355 0 0 0 0 0 0
621 1 C 1.008 7.16846 7.81686 -14.9761 0 0 0 0 0 0
649 2 C 15.999 8.42817 8.96298 -12.1843 0 0 0 0 0 0
650 1 C 1.008 8.09541 8.49077 -12.9741 0 0 0 0 0 0
651 1 C 1.008 8.50733 8.20303 -11.5722 0 0 0 0 0 0
670 2 C 15.999 6.74137 8.64344 -16.5123 0 0 0 0 0 0
671 1 C 1.008 5.79432 8.50971 -16.3343 0 0 0 0 0 0
672 1 C 1.008 6.74165 9.63495 -16.5478 0 0 0 0 0 0
703 2 C 15.999 3.17783 9.10688 -11.0675 0 0 0 0 0 0
704 1 C 1.008 3.66762 8.54419 -11.6977 0 0 0 0 0 0
706 2 C 15.999 4.03782 8.99763 -15.2891 0 0 0 0 0 0
707 1 C 1.008 3.5666 8.64716 -16.0559 0 0 0 0 0 0
708 1 C 1.008 3.85344 8.30507 -14.6303 0 0 0 0 0 0
7 2 C 15.999 -7.35189 -1.04991 -6.96559 0 0 0 0 0 0
8 1 C 1.008 -7.10882 -1.81574 -6.40612 0 0 0 0 0 0
9 1 C 1.008 -6.47775 -0.807452 -7.31741 0 0 0 0 0 0
20 1 C 1.008 -8.18946 -1.75123 -10.5219 0 0 0 0 0 0
21 1 C 1.008 -7.85294 -0.297488 -10.7436 0 0 0 0 0 0
34 2 C 15.999 -3.98716 -5.67184 -10.62 0 0 0 0 0 0
40 2 C 15.999 -7.49126 -3.25769 -9.95953 0 0 0 0 0 0
41 1 C 1.008 -6.81364 -3.82116 -9.53256 0 0 0 0 0 0
43 2 C 15.999 -2.88373 -1.74024 -10.1472 0 0 0 0 0 0
44 1 C 1.008 -1.98937 -2.07711 -9.91999 0 0 0 0 0 0
49 2 C 15.999 -5.43416 -6.77493 -6.5811 0 0 0 0 0 0
50 1 C 1.008 -5.70605 -6.29899 -7.3937 0 0 0 0 0 0
51 1 C 1.008 -6.20749 -6.59756 -6.00382 0 0 0 0 0 0
61 2 C 15.999 -5.79485 -4.9925 -8.64871 0 0 0 0 0 0
62 1 C 1.008 -5.19614 -4.42516 -8.11807 0 0 0 0 0 0
63 1 C 1.008 -5.1754 -5.35065 -9.32417 0 0 0 0 0 0
76 2 C 15.999 -1.96594 -8.70864 -9.54213 0 0 0 0 0 0
77 1 C 1.008 -1.85074 -9.66035 -9.35636 0 0 0 0 0 0
78 1 C 1.008 -2.7269 -8.52499 -8.95609 0 0 0 0 0 0
109 2 C 15.999 -4.48004 -0.874309 -8.06766 0 0 0 0 0 0
110 1 C 1.008 -3.84258 -1.14848 -8.76988 0 0 0 0 0 0
111 1 C 1.008 -3.92794 -0.228491 -7.56688 0 0 0 0 0 0
121 2 C 15.999 -5.62932 -0.367447 -3.90946 0 0 0 0 0 0
123 1 C 1.008 -6.53638 -0.679955 -4.07862 0 0 0 0 0 0
169 2 C 15.999 -4.28582 -8.90648 -7.97214 0 0 0 0 0 0
170 1 C 1.008 -4.9815 -8.74729 -8.63766 0 0 0 0 0 0
171 1 C 1.008 -4.53434 -8.2151 -7.3286 0 0 0 0 0 0
172 2 C 15.999 -0.00919099 -8.26697 -4.3199 0 0 0 0 0 0
174 1 C 1.008 -0.973181 -8.37866 -4.38278 0 0 0 0 0 0
184 2 C 15.999 -4.39138 -3.37122 -6.92048 0 0 0 0 0 0
185 1 C 1.008 -5.11792 -3.34738 -6.26045 0 0 0 0 0 0
186 1 C 1.008 -4.42274 -2.45468 -7.26549 0 0 0 0 0 0
199 2 C 15.999 -6.72274 -3.35642 -5.4567 0 0 0 0 0 0
200 1 C 1.008 -7.18088 -2.86534 -4.73435 0 0 0 0 0 0
201 1 C 1.008 -7.01173 -4.26808 -5.28547 0 0 0 0 0 0
206 1 C 1.008 -9.05874 -5.6513 -10.3307 0 0 0 0 0 0
216 1 C 1.008 -0.700013 -6.00426 -10.5317 0 0 0 0 0 0