ITEM: TIMESTEP
100000
ITEM: NUMBER OF ATOMS
1665
ITEM: BOX BOUNDS pp pp pp
-1.0093999999999999e+01 1.0093999999999999e+01
-9.9900000000000002e+00 9.9900035801999998e+00
-2.8981631193081675e+01 1.4855557193227044e+01
ITEM: ATOMS id type element mass x y z vx vy vz ix iy iz
1425 3 C 197 -6.1173 -8.1564 -28.6861 0 0 0 0 0 0
1426 3 C 197 -8.1564 -6.1173 -28.6861 0 0 0 0 0 0
1429 3 C 197 -2.0391 -8.1564 -28.6861 0 0 0 0 0 0
1430 3 C 197 -4.0782 -6.1173 -28.6861 0 0 0 0 0 0
1443 3 C 197 -6.1173 -4.0782 -28.6861 0 0 0 0 0 0
1444 3 C 197 -8.1564 -2.0391 -28.6861 0 0 0 0 0 0
1447 3 C 197 -2.0391 -4.0782 -28.6861 0 0 0 0 0 0
1448 3 C 197 -4.0782 -2.0391 -28.6861 0 0 0 0 0 0
1461 3 C 197 -6.1173 0 -28.6861 0 0 0 0 0 0
1465 3 C 197 -2.0391 0 -28.6861 0 0 0 0 0 0
1504 3 C 197 -8.1564 -8.1564 -26.957 0 0 0 0 0 0
1505 3 C 197 -6.1173 -6.1173 -26.957 0 0 0 0 0 0
1506 3 C 197 -6.1173 -8.1564 -25.2279 0 0 0 0 0 0
1507 3 C 197 -8.1564 -6.1173 -25.2279 0 0 0 0 0 0
1508 3 C 197 -4.0782 -8.1564 -26.957 0 0 0 0 0 0
1509 3 C 197 -2.0391 -6.1173 -26.957 0 0 0 0 0 0
1510 3 C 197 -2.0391 -8.1564 -25.2279 0 0 0 0 0 0
1511 3 C 197 -4.0782 -6.1173 -25.2279 0 0 0 0 0 0
1522 3 C 197 -8.1564 -4.0782 -26.957 0 0 0 0 0 0
1523 3 C 197 -6.1173 -2.0391 -26.957 0 0 0 0 0 0
1524 3 C 197 -6.1173 -4.0782 -25.2279 0 0 0 0 0 0
1525 3 C 197 -8.1564 -2.0391 -25.2279 0 0 0 0 0 0
1526 3 C 197 -4.0782 -4.0782 -26.957 0 0 0 0 0 0
1527 3 C 197 -2.0391 -2.0391 -26.957 0 0 0 0 0 0
1528 3 C 197 -2.0391 -4.0782 -25.2279 0 0 0 0 0 0
1529 3 C 197 -4.0782 -2.0391 -25.2279 0 0 0 0 0 0
1540 3 C 197 -8.1564 0 -26.957 0 0 0 0 0 0
1542 3 C 197 -6.1173 0 -25.2279 0 0 0 0 0 0
1544 3 C 197 -4.0782 0 -26.957 0 0 0 0 0 0
1546 3 C 197 -2.0391 0 -25.2279 0 0 0 0 0 0
1585 3 C 197 -8.1564 -8.1564 -23.4988 0 0 0 0 0 0
1586 3 C 197 -6.1173 -6.1173 -23.4988 0 0 0 0 0 0
1589 3 C 197 -4.0782 -8.1564 -23.4988 0 0 0 0 0 0
1590 3 C 197 -2.0391 -6.1173 -23.4988 0 0 0 0 0 0
1603 3 C 197 -8.1564 -4.0782 -23.4988 0 0 0 0 0 0
1604 3 C 197 -6.1173 -2.0391 -23.4988 0 0 0 0 0 0
1607 3 C 197 -4.0782 -4.0782 -23.4988 0 0 0 0 0 0
1608 3 C 197 -2.0391 -2.0391 -23.4988 0 0 0 0 0 0
1621 3 C 197 -8.1564 0 -23.4988 0 0 0 0 0 0
1625 3 C 197 -4.0782 0 -23.4988 0 0 0 0 0 0
1587 3 C 197 -6.1173 -8.1564 -21.7696 0 0 0 0 0 0
1588 3 C 197 -8.1564 -6.1173 -21.7696 0 0 0 0 0 0
1591 3 C 197 -2.0391 -8.1564 -21.7696 0 0 0 0 0 0
1592 3 C 197 -4.0782 -6.1173 -21.7696 0 0 0 0 0 0
1605 3 C 197 -6.1173 -4.0782 -21.7696 0 0 0 0 0 0
1606 3 C 197 -8.1564 -2.0391 -21.7696 0 0 0 0 0 0
1609 3 C 197 -2.0391 -4.0782 -21.7696 0 0 0 0 0 0
1610 3 C 197 -4.0782 -2.0391 -21.7696 0 0 0 0 0 0
1623 3 C 197 -6.1173 0 -21.7696 0 0 0 0 0 0
1627 3 C 197 -2.0391 0 -21.7696 0 0 0 0 0 0
1433 3 C 197 2.0391 -8.1564 -28.6861 0 0 0 0 0 0
1434 3 C 197 0 -6.1173 -28.6861 0 0 0 0 0 0
1437 3 C 197 6.1173 -8.1564 -28.6861 0 0 0 0 0 0
1438 3 C 197 4.0782 -6.1173 -28.6861 0 0 0 0 0 0
1440 3 C 197 8.1564 -6.1173 -28.6861 0 0 0 0 0 0
1451 3 C 197 2.0391 -4.0782 -28.6861 0 0 0 0 0 0
1452 3 C 197 0 -2.0391 -28.6861 0 0 0 0 0 0
1455 3 C 197 6.1173 -4.0782 -28.6861 0 0 0 0 0 0
1456 3 C 197 4.0782 -2.0391 -28.6861 0 0 0 0 0 0
1458 3 C 197 8.1564 -2.0391 -28.6861 0 0 0 0 0 0
1469 3 C 197 2.0391 0 -28.6861 0 0 0 0 0 0
1473 3 C 197 6.1173 0 -28.6861 0 0 0 0 0 0
1512 3 C 197 0 -8.1564 -26.957 0 0 0 0 0 0
1513 3 C 197 2.0391 -6.1173 -26.957 0 0 0 0 0 0
1514 3 C 197 2.0391 -8.1564 -25.2279 0 0 0 0 0 0
1515 3 C 197 0 -6.1173 -25.2279 0 0 0 0 0 0
1516 3 C 197 4.0782 -8.1564 -26.957 0 0 0 0 0 0
1517 3 C 197 6.1173 -6.1173 -26.957 0 0 0 0 0 0
1518 3 C 197 6.1173 -8.1564 -25.2279 0 0 0 0 0 0
1519 3 C 197 4.0782 -6.1173 -25.2279 0 0 0 0 0 0
1520 3 C 197 8.1564 -8.1564 -26.957 0 0 0 0 0 0
1521 3 C 197 8.1564 -6.1173 -25.2279 0 0 0 0 0 0
1530 3 C 197 0 -4.0782 -26.957 0 0 0 0 0 0
1531 3 C 197 2.0391 -2.0391 -26.957 0 0 0 0 0 0
1532 3 C 197 2.0391 -4.0782 -25.2279 0 0 0 0 0 0
1533 3 C 197 0 -2.0391 -25.2279 0 0 0 0 0 0
1534 3 C 197 4.0782 -4.0782 -26.957 0 0 0 0 0 0
1535 3 C 197 6.1173 -2.0391 -26.957 0 0 0 0 0 0
1536 3 C 197 6.1173 -4.0782 -25.2279 0 0 0 0 0 0
1537 3 C 197 4.0782 -2.0391 -25.2279 0 0 0 0 0 0
1538 3 C 197 8.1564 -4.0782 -26.957 0 0 0 0 0 0
1539 3 C 197 8.1564 -2.0391 -25.2279 0 0 0 0 0 0
1548 3 C 197 0 0 -26.957 0 0 0 0 0 0
1550 3 C 197 2.0391 0 -25.2279 0 0 0 0 0 0
1552 3 C 197 4.0782 0 -26.957 0 0 0 0 0 0
1554 3 C 197 6.1173 0 -25.2279 0 0 0 0 0 0
1556 3 C 197 8.1564 0 -26.957 0 0 0 0 0 0
1593 3 C 197 0 -8.1564 -23.4988 0 0 0 0 0 0
1594 3 C 197 2.0391 -6.1173 -23.4988 0 0 0 0 0 0
1597 3 C 197 4.0782 -8.1564 -23.4988 0 0 0 0 0 0
1598 3 C 197 6.1173 -6.1173 -23.4988 0 0 0 0 0 0
1601 3 C 197 8.1564 -8.1564 -23.4988 0 0 0 0 0 0
1611 3 C 197 0 -4.0782 -23.4988 0 0 0 0 0 0
1612 3 C 197 2.0391 -2.0391 -23.4988 0 0 0 0 0 0
1615 3 C 197 4.0782 -4.0782 -23.4988 0 0 0 0 0 0
1616 3 C 197 6.1173 -2.0391 -23.4988 0 0 0 0 0 0
1619 3 C 197 8.1564 -4.0782 -23.4988 0 0 0 0 0 0
1629 3 C 197 0 0 -23.4988 0 0 0 0 0 0
1633 3 C 197 4.0782 0 -23.4988 0 0 0 0 0 0
1637 3 C 197 8.1564 0 -23.4988 0 0 0 0 0 0
1595 3 C 197 2.0391 -8.1564 -21.7696 0 0 0 0 0 0
1596 3 C 197 0 -6.1173 -21.7696 0 0 0 0 0 0
1599 3 C 197 6.1173 -8.1564 -21.7696 0 0 0 0 0 0
1600 3 C 197 4.0782 -6.1173 -21.7696 0 0 0 0 0 0
1602 3 C 197 8.1564 -6.1173 -21.7696 0 0 0 0 0 0
1613 3 C 197 2.0391 -4.0782 -21.7696 0 0 0 0 0 0
1614 3 C 197 0 -2.0391 -21.7696 0 0 0 0 0 0
1617 3 C 197 6.1173 -4.0782 -21.7696 0 0 0 0 0 0
1618 3 C 197 4.0782 -2.0391 -21.7696 0 0 0 0 0 0
1620 3 C 197 8.1564 -2.0391 -21.7696 0 0 0 0 0 0
1631 3 C 197 2.0391 0 -21.7696 0 0 0 0 0 0
1635 3 C 197 6.1173 0 -21.7696 0 0 0 0 0 0
1462 3 C 197 -8.1564 2.0391 -28.6861 0 0 0 0 0 0
1466 3 C 197 -4.0782 2.0391 -28.6861 0 0 0 0 0 0
1479 3 C 197 -6.1173 4.0782 -28.6861 0 0 0 0 0 0
1480 3 C 197 -8.1564 6.1173 -28.6861 0 0 0 0 0 0
1483 3 C 197 -2.0391 4.0782 -28.6861 0 0 0 0 0 0
1484 3 C 197 -4.0782 6.1173 -28.6861 0 0 0 0 0 0
1496 3 C 197 -6.1173 8.1564 -28.6861 0 0 0 0 0 0
1498 3 C 197 -2.0391 8.1564 -28.6861 0 0 0 0 0 0
1541 3 C 197 -6.1173 2.0391 -26.957 0 0 0 0 0 0
1543 3 C 197 -8.1564 2.0391 -25.2279 0 0 0 0 0 0
1545 3 C 197 -2.0391 2.0391 -26.957 0 0 0 0 0 0
1547 3 C 197 -4.0782 2.0391 -25.2279 0 0 0 0 0 0
1558 3 C 197 -8.1564 4.0782 -26.957 0 0 0 0 0 0
1559 3 C 197 -6.1173 6.1173 -26.957 0 0 0 0 0 0
1560 3 C 197 -6.1173 4.0782 -25.2279 0 0 0 0 0 0
1561 3 C 197 -8.1564 6.1173 -25.2279 0 0 0 0 0 0
1562 3 C 197 -4.0782 4.0782 -26.957 0 0 0 0 0 0
1563 3 C 197 -2.0391 6.1173 -26.957 0 0 0 0 0 0
1564 3 C 197 -2.0391 4.0782 -25.2279 0 0 0 0 0 0
1565 3 C 197 -4.0782 6.1173 -25.2279 0 0 0 0 0 0
1576 3 C 197 -8.1564 8.1564 -26.957 0 0 0 0 0 0
1577 3 C 197 -6.1173 8.1564 -25.2279 0 0 0 0 0 0
1578 3 C 197 -4.0782 8.1564 -26.957 0 0 0 0 0 0
1579 3 C 197 -2.0391 8.1564 -25.2279 0 0 0 0 0 0
1622 3 C 197 -6.1173 2.0391 -23.4988 0 0 0 0 0 0
1626 3 C 197 -2.0391 2.0391 -23.4988 0 0 0 0 0 0
1639 3 C 197 -8.1564 4.0782 -23.4988 0 0 0 0 0 0
1640 3 C 197 -6.1173 6.1173 -23.4988 0 0 0 0 0 0
1643 3 C 197 -4.0782 4.0782 -23.4988 0 0 0 0 0 0
1644 3 C 197 -2.0391 6.1173 -23.4988 0 0 0 0 0 0
1657 3 C 197 -8.1564 8.1564 -23.4988 0 0 0 0 0 0
1659 3 C 197 -4.0782 8.1564 -23.4988 0 0 0 0 0 0
1624 3 C 197 -8.1564 2.0391 -21.7696 0 0 0 0 0 0
1628 3 C 197 -4.0782 2.0391 -21.7696 0 0 0 0 0 0
1641 3 C 197 -6.1173 4.0782 -21.7696 0 0 0 0 0 0
1642 3 C 197 -8.1564 6.1173 -21.7696 0 0 0 0 0 0
1645 3 C 197 -2.0391 4.0782 -21.7696 0 0 0 0 0 0
1646 3 C 197 -4.0782 6.1173 -21.7696 0 0 0 0 0 0
1658 3 C 197 -6.1173 8.1564 -21.7696 0 0 0 0 0 0
1660 3 C 197 -2.0391 8.1564 -21.7696 0 0 0 0 0 0
482 1 C 1.008 8.81678 9.11976 -20.1212 0.00697516 0.0214566 -0.00314444 -1 0 0
1470 3 C 197 0 2.0391 -28.6861 0 0 0 0 0 0
1474 3 C 197 4.0782 2.0391 -28.6861 0 0 0 0 0 0
1476 3 C 197 8.1564 2.0391 -28.6861 0 0 0 0 0 0
1487 3 C 197 2.0391 4.0782 -28.6861 0 0 0 0 0 0
1488 3 C 197 0 6.1173 -28.6861 0 0 0 0 0 0
1491 3 C 197 6.1173 4.0782 -28.6861 0 0 0 0 0 0
1492 3 C 197 4.0782 6.1173 -28.6861 0 0 0 0 0 0
1494 3 C 197 8.1564 6.1173 -28.6861 0 0 0 0 0 0
1500 3 C 197 2.0391 8.1564 -28.6861 0 0 0 0 0 0
1502 3 C 197 6.1173 8.1564 -28.6861 0 0 0 0 0 0
1549 3 C 197 2.0391 2.0391 -26.957 0 0 0 0 0 0
1551 3 C 197 0 2.0391 -25.2279 0 0 0 0 0 0
1553 3 C 197 6.1173 2.0391 -26.957 0 0 0 0 0 0
1555 3 C 197 4.0782 2.0391 -25.2279 0 0 0 0 0 0
1557 3 C 197 8.1564 2.0391 -25.2279 0 0 0 0 0 0
1566 3 C 197 0 4.0782 -26.957 0 0 0 0 0 0
1567 3 C 197 2.0391 6.1173 -26.957 0 0 0 0 0 0
1568 3 C 197 2.0391 4.0782 -25.2279 0 0 0 0 0 0
1569 3 C 197 0 6.1173 -25.2279 0 0 0 0 0 0
1570 3 C 197 4.0782 4.0782 -26.957 0 0 0 0 0 0
1571 3 C 197 6.1173 6.1173 -26.957 0 0 0 0 0 0
1572 3 C 197 6.1173 4.0782 -25.2279 0 0 0 0 0 0
1573 3 C 197 4.0782 6.1173 -25.2279 0 0 0 0 0 0
1574 3 C 197 8.1564 4.0782 -26.957 0 0 0 0 0 0
1575 3 C 197 8.1564 6.1173 -25.2279 0 0 0 0 0 0
1580 3 C 197 0 8.1564 -26.957 0 0 0 0 0 0
1581 3 C 197 2.0391 8.1564 -25.2279 0 0 0 0 0 0
1582 3 C 197 4.0782 8.1564 -26.957 0 0 0 0 0 0
1583 3 C 197 6.1173 8.1564 -25.2279 0 0 0 0 0 0
1584 3 C 197 8.1564 8.1564 -26.957 0 0 0 0 0 0
1630 3 C 197 2.0391 2.0391 -23.4988 0 0 0 0 0 0
1634 3 C 197 6.1173 2.0391 -23.4988 0 0 0 0 0 0
1647 3 C 197 0 4.0782 -23.4988 0 0 0 0 0 0
1648 3 C 197 2.0391 6.1173 -23.4988 0 0 0 0 0 0
1651 3 C 197 4.0782 4.0782 -23.4988 0 0 0 0 0 0
1652 3 C 197 6.1173 6.1173 -23.4988 0 0 0 0 0 0
1655 3 C 197 8.1564 4.0782 -23.4988 0 0 0 0 0 0
1661 3 C 197 0 8.1564 -23.4988 0 0 0 0 0 0
1663 3 C 197 4.0782 8.1564 -23.4988 0 0 0 0 0 0
1665 3 C 197 8.1564 8.1564 -23.4988 0 0 0 0 0 0
1632 3 C 197 0 2.0391 -21.7696 0 0 0 0 0 0
1636 3 C 197 4.0782 2.0391 -21.7696 0 0 0 0 0 0
1638 3 C 197 8.1564 2.0391 -21.7696 0 0 0 0 0 0
1649 3 C 197 2.0391 4.0782 -21.7696 0 0 0 0 0 0
1650 3 C 197 0 6.1173 -21.7696 0 0 0 0 0 0
1653 3 C 197 6.1173 4.0782 -21.7696 0 0 0 0 0 0
1654 3 C 197 4.0782 6.1173 -21.7696 0 0 0 0 0 0
1656 3 C 197 8.1564 6.1173 -21.7696 0 0 0 0 0 0
1662 3 C 197 2.0391 8.1564 -21.7696 0 0 0 0 0 0
1664 3 C 197 6.1173 8.1564 -21.7696 0 0 0 0 0 0
491 1 C 1.008 -9.11556 -8.03437 -20.3205 0.0117752 0.00164589 0.00964821 2 1 0
413 1 C 1.008 -1.10801 -2.91136 -19.3066 -0.00576127 -0.00710043 0.0240757 0 0 0
412 2 C 15.999 -1.90459 -2.38127 -19.2803 -0.00109383 0.000752357 0.00706431 0 0 0
414 1 C 1.008 -1.59079 -1.4801 -19.2051 0.00649795 -0.0011214 -0.00240639 0 0 0
596 1 C 1.008 -3.05432 -3.797 -19.1744 -0.00147862 0.00309621 0.0140252 0 0 0
595 2 C 15.999 -3.92407 -4.19669 -19.1763 0.00084707 -0.00186858 -0.00373284 0 0 0
597 1 C 1.008 -3.83748 -4.9572 -19.7511 0.0135163 0.00608112 -0.0123246 0 0 0
44 1 C 1.008 -6.59946 -5.75291 -19.4217 0.0223415 -0.00272851 -0.0292519 0 0 0
43 2 C 15.999 -5.88726 -6.32537 -19.1366 0.00347555 -0.0112982 0.000747264 0 0 0
45 1 C 1.008 -5.25197 -5.73473 -18.7319 0.00707776 -0.0152742 0.000893323 0 0 0
672 1 C 1.008 -6.71071 -2.89246 -19.3912 0.00266467 0.00446889 -0.0113652 1 1 0
670 2 C 15.999 -6.04625 -2.28183 -19.072 -0.00138995 0.000545202 0.00456301 1 1 0
671 1 C 1.008 -5.36506 -2.84163 -18.6994 0.00780366 -0.00500885 -0.0206817 1 1 0
154 2 C 15.999 -2.17505 -6.49241 -19.5011 0.00173237 -0.00213219 0.00190007 -1 1 0
155 1 C 1.008 -2.45235 -6.59089 -18.5903 0.00390794 0.00145388 0.00294888 -1 1 0
156 1 C 1.008 -1.60974 -7.24772 -19.6629 0.015178 0.00648068 0.00872667 -1 1 0
42 1 C 1.008 -8.72326 -4.29688 -19.5782 0.00556682 0.0175005 0.00133813 0 0 0
41 1 C 1.008 -8.11225 -4.48746 -18.2063 0.00537699 0.0163006 0.00125427 0 0 0
40 2 C 15.999 -7.89346 -4.48115 -19.1381 0.00140755 -0.00391747 0.000164076 0 0 0
697 2 C 15.999 -5.04425 -8.85197 -18.8216 -0.000927203 0.000885533 0.00714283 0 1 0
698 1 C 1.008 -5.23192 -7.95664 -19.1034 -0.00905595 0.000728289 0.0120596 0 1 0
699 1 C 1.008 -4.1191 -8.9805 -19.0309 -0.00440279 0.00419964 -0.010293 0 1 0
360 1 C 1.008 -4.43119 -1.00386 -19.5729 -0.0104852 0.0108353 -0.00961717 0 0 0
184 2 C 15.999 -2.63618 -6.78712 -16.761 -0.00434765 0.00275761 0.00329594 -1 2 0
185 1 C 1.008 -2.22219 -5.94303 -16.5811 0.0140354 -0.00580135 0.00124209 -1 2 0
186 1 C 1.008 -2.05291 -7.43096 -16.3591 -0.00667236 -0.0105449 -0.0146405 -1 2 0
653 1 C 1.008 9.86873 -6.80036 -18.508 -0.0229802 0.0282773 -0.0036704 -1 1 0
359 1 C 1.008 -4.92243 0.354171 -19.1187 -0.00292703 0.0062924 0.0121776 0 0 0
381 1 C 1.008 -9.13296 -5.13386 -15.5925 -0.0316783 0.00940282 -0.0212806 0 0 0
379 2 C 15.999 -8.62847 -5.15991 -16.4055 0.000299729 0.00401083 -0.00125928 0 0 0
380 1 C 1.008 -8.64957 -6.07911 -16.6717 0.0161684 0.00114593 0.00742852 0 0 0
572 1 C 1.008 -6.34944 -1.26928 -16.9774 0.00834448 -0.00396483 0.00445508 1 0 0
646 2 C 15.999 -7.89189 -7.65506 -17.7061 0.00614769 -0.00343531 0.00201787 0 1 0
571 2 C 15.999 -6.10845 -0.707336 -16.241 0.00749043 0.000876396 0.00103954 1 0 0
292 2 C 15.999 -5.00753 -8.9174 -16.0492 0.00360926 0.0042232 -0.00622995 -1 1 0
293 1 C 1.008 -4.10244 -8.69452 -15.8316 0.00887552 -0.0183311 -0.00488282 -1 1 0
1030 2 C 15.999 -1.54496 -4.19447 -16.6607 -0.00465552 -0.00281561 -0.000233839 1 0 0
1031 1 C 1.008 -2.1357 -3.46918 -16.4577 -0.00533304 -0.00181273 -0.0058042 1 0 0
1032 1 C 1.008 -0.668001 -3.83241 -16.5339 -0.00499937 -0.00110503 -0.00276367 1 0 0
300 1 C 1.008 -7.19877 -0.851626 -18.8428 0.00361357 -0.000734308 -0.00123359 1 1 0
647 1 C 1.008 -7.9896 -8.5755 -17.95 0.012143 -0.00694491 0.0128947 0 1 0
92 1 C 1.008 -0.719547 -5.05791 -19.4838 -0.00579065 0.00349292 0.00768606 0 0 0
770 1 C 1.008 -1.87631 9.47556 -18.8204 0.00677676 0.00622951 -0.00623074 0 0 0
771 1 C 1.008 -1.96417 -9.40912 -19.8618 -0.00798558 0.0206652 0.010208 0 1 0
769 2 C 15.999 -2.47928 -9.86163 -19.1939 -0.0032156 0.000667181 0.000314833 0 1 0
237 1 C 1.008 -7.80946 -9.90287 -19.4908 -0.00642289 -0.0336558 -0.0083234 0 0 0
235 2 C 15.999 -7.35364 9.67435 -18.7518 0.00282114 0.000494375 0.00456616 0 -1 0
236 1 C 1.008 -6.44188 9.947 -18.8547 0.00128251 -0.00306604 -0.01869 0 -1 0
648 1 C 1.008 -7.17617 -7.33584 -18.2557 0.00632204 -0.00613943 0.000672448 0 1 0
91 2 C 15.999 0.0117686 -4.46571 -19.3086 -0.00150529 0.000451564 2.56962e-05 0 0 0
573 1 C 1.008 -5.18874 -0.912813 -16.0732 0.00658922 0.00014697 0.00508463 1 0 0
629 1 C 1.008 -3.02239 -2.21404 -17.6525 -0.00631315 -0.016236 -0.00732977 0 1 0
529 2 C 15.999 -0.0231913 -8.67813 -19.7506 0.00014455 0.00465025 -0.00783672 0 1 0
294 1 C 1.008 -5.1155 -8.62558 -16.9544 0.00638632 0.0243846 -5.79734e-05 -1 1 0
654 1 C 1.008 -9.73147 -5.92061 -19.5908 0.0260709 -0.00745027 -0.00612309 0 1 0
652 2 C 15.999 -10.02 -6.81662 -19.4171 0.00102426 0.00270092 0.00466025 0 1 0
492 1 C 1.008 -9.69827 -9.36802 -20.7373 -0.00682715 0.0156847 -0.00932848 2 1 0
490 2 C 15.999 -8.86682 -8.92473 -20.5687 -0.000855663 0.000292315 0.00180828 2 1 0
1211 1 C 1.008 -9.9035 -3.73366 -17.0923 0.00620315 0.00549746 -0.00226822 1 0 0
15 1 C 1.008 9.13074 -4.10398 -20.4381 -0.00755435 0.0318273 0.00964343 -1 1 0
1018 2 C 15.999 9.20567 -6.83938 -16.1281 0.00118868 0.00121796 0.00283168 -1 0 0
1020 1 C 1.008 9.84973 -7.07376 -15.4599 0.00362951 -0.00680064 -0.00233003 -1 0 0
51 1 C 1.008 -9.6307 -0.241961 -21.2086 -0.00468044 0.00799589 -0.00599706 0 -1 0
358 2 C 15.999 -4.12738 -0.170378 -19.2134 -0.00541587 0.00461525 0.000531409 0 0 0
628 2 C 15.999 -3.533 -2.21366 -16.8428 -0.00177499 -0.00671407 -0.0044735 0 1 0
509 1 C 1.008 -9.94229 -0.656912 -18.4585 -0.00019513 -0.00759508 -0.00289135 0 0 0
630 1 C 1.008 -4.18952 -2.89798 -16.9728 -0.0100992 -4.69815e-05 0.00246697 0 1 0
600 1 C 1.008 -2.32885 0.419678 -17.7323 0.00176246 -0.00940431 -0.00578356 0 0 0
508 2 C 15.999 9.76909 -0.883819 -17.66 0.000838387 0.00119007 0.000219117 -1 0 0
309 1 C 1.008 -9.20195 -3.79913 -12.9236 0.0397043 -0.0301026 -0.00769866 0 1 0
998 1 C 1.008 -5.31433 -4.17417 -15.5712 -0.0115558 -0.0126824 0.00829057 1 0 0
997 2 C 15.999 -5.73453 -4.08219 -16.4263 0.00817363 0.0030164 0.00029672 1 0 0
999 1 C 1.008 -6.66768 -4.20081 -16.2491 0.0011874 0.0291824 -0.0188191 1 0 0
164 1 C 1.008 -5.24625 -9.85561 -13.9333 -0.00950776 -0.0107657 -0.00923602 0 1 0
1019 1 C 1.008 8.90376 -7.67874 -16.4753 0.00365071 0.00549562 -0.00968294 -1 0 0
391 2 C 15.999 0.0658049 -0.0538693 -19.3753 -0.000953339 0.0067557 -0.00225402 0 0 0
13 2 C 15.999 10.0758 -4.03344 -20.5729 -0.00512862 -0.00319015 0.00837699 -1 1 0
14 1 C 1.008 -9.99109 -4.18959 -21.5094 -0.0135935 0.00667531 0.00564352 0 1 0
93 1 C 1.008 0.784747 -5.03023 -19.3158 -0.0046733 -0.00386656 -0.0011579 0 0 0
351 1 C 1.008 -0.251417 -7.89391 -15.1923 -0.000447614 -0.0261335 0.016897 0 0 0
54 1 C 1.008 2.22735 -6.11874 -17.3638 -0.0177494 0.000840611 0.00437708 0 1 0
1212 1 C 1.008 9.47491 -2.65746 -17.7839 0.0124342 -0.00471922 -0.0255025 0 0 0
52 2 C 15.999 2.31863 -6.13043 -16.411 0.00278484 0.00372451 0.0024327 0 1 0
349 2 C 15.999 -0.521494 -8.34647 -15.9914 0.000756009 -0.00287805 0.00329914 0 0 0
1128 1 C 1.008 6.5298 -6.33802 -17.2063 0.0161509 0.020445 -0.0106861 0 0 0
1127 1 C 1.008 7.65099 -6.1939 -16.1993 -0.00554224 0.00321725 0.0159022 0 0 0
1126 2 C 15.999 6.71225 -6.04558 -16.3133 -0.00304222 0.00531782 -0.00181384 0 0 0
1210 2 C 15.999 9.42176 -3.55972 -17.4687 0.00401465 0.00562525 0.00280011 0 0 0
246 1 C 1.008 7.36376 -9.69417 -15.7397 0.000793578 0.0120989 0.0117318 -1 1 0
126 1 C 1.008 4.04081 -8.67543 -19.8422 -0.00558176 -0.0175899 0.0221119 0 1 0
202 2 C 15.999 7.54772 -4.44494 -19.2813 0.000155113 -0.000548172 -0.00451371 -1 0 0
203 1 C 1.008 8.12852 -4.32964 -18.5293 -0.00957623 0.00606205 0.00198357 -1 0 0
204 1 C 1.008 7.06379 -3.62113 -19.3394 -0.000655175 -0.00188296 -0.0166907 -1 0 0
502 2 C 15.999 3.89975 -3.97495 -19.3641 -0.0040446 1.5127e-05 -0.00331266 0 0 0
504 1 C 1.008 4.68362 -3.4437 -19.504 -0.00464525 0.000387238 -0.00526407 0 0 0
503 1 C 1.008 3.17517 -3.35152 -19.4146 -0.00443949 -0.000269828 -0.00114347 0 0 0
190 2 C 15.999 1.77774 -2.06915 -19.3904 0.00224698 -0.00446098 -0.00362133 0 0 0
191 1 C 1.008 1.21605 -2.79932 -19.6504 0.00869685 -0.0139373 0.00910553 0 0 0
192 1 C 1.008 1.17462 -1.33777 -19.2579 -0.00461008 -0.00847249 -0.0127363 0 0 0
553 2 C 15.999 2.03908 -6.26873 -19.5251 -0.00354595 0.000480141 -0.00183988 0 1 0
555 1 C 1.008 2.5492 -7.03644 -19.267 0.000310945 0.00872666 0.0151138 0 1 0
554 1 C 1.008 2.68393 -5.66499 -19.8937 -0.00080203 0.0116601 0.0213075 0 1 0
544 2 C 15.999 6.06163 -2.0087 -19.4575 -0.00136714 -0.00130247 0.00322804 -1 0 0
545 1 C 1.008 6.78795 -1.38783 -19.5141 -0.00261587 -0.00355606 -0.0375816 -1 0 0
546 1 C 1.008 5.28352 -1.45963 -19.361 0.000527802 0.00261783 -0.00377928 -1 0 0
621 1 C 1.008 7.0181 -7.68583 -19.3364 -0.00496941 0.00064804 -0.00229783 0 1 0
620 1 C 1.008 6.92974 -6.17714 -19.4255 -0.00105652 0.000409521 -0.0103526 0 1 0
619 2 C 15.999 6.4461 -6.9474 -19.1272 0.00203657 0.0041797 0.00440707 0 1 0
350 1 C 1.008 0.293682 -8.4937 -16.471 0.000381144 0.0195917 -0.00417089 0 0 0
728 1 C 1.008 9.1757 -8.00157 -19.9685 0.00422127 -0.00160213 0.00482625 0 2 0
727 2 C 15.999 8.37202 -8.52134 -19.9817 0.00247295 0.00120912 0.000494455 0 2 0
729 1 C 1.008 8.39396 -8.9759 -20.8238 -0.00424816 0.0162749 -0.00781878 0 2 0
124 2 C 15.999 4.02376 -8.00463 -19.1596 -0.000721171 0.00384797 0.0012134 0 1 0
125 1 C 1.008 4.89891 -7.61752 -19.1816 0.00205511 -0.00309966 -0.0109861 0 1 0
119 1 C 1.008 3.2242 -0.588985 -19.7239 -0.0242694 0.0172652 0.0217987 0 0 0
707 1 C 1.008 3.42324 -0.498745 -14.0521 0.0153555 0.0141326 -0.0126045 0 1 0
706 2 C 15.999 2.93592 0.224957 -13.6584 0.00297046 -0.000549602 -0.000972119 0 1 0
659 1 C 1.008 -0.136242 -1.62029 -16.7382 -0.012291 -0.0131339 -0.000438724 1 0 0
658 2 C 15.999 0.513819 -2.27542 -16.4843 -0.00283115 -0.00444583 -0.00222615 1 0 0
660 1 C 1.008 1.35259 -1.89458 -16.7444 -0.00747342 0.0127323 0.0078943 1 0 0
53 1 C 1.008 2.79606 -6.93907 -16.2256 6.98504e-05 0.000459238 -0.00482078 0 1 0
531 1 C 1.008 0.606019 -8.92588 -20.4281 0.00573787 0.017473 -0.00732156 0 1 0
328 2 C 15.999 4.35938 -7.90857 -15.6271 0.00331494 0.00136954 0.00219134 1 0 0
330 1 C 1.008 5.14521 -7.40555 -15.4134 0.00610039 -0.00121852 -0.00199354 1 0 0
329 1 C 1.008 4.67681 -8.63082 -16.1692 -0.000993322 -0.00363305 0.0063467 1 0 0
873 1 C 1.008 4.57519 -4.3534 -17.468 0.000440851 -0.00982689 0.00811339 0 2 0
216 1 C 1.008 4.23674 -0.985335 -16.4092 -0.00809936 0.00983631 0.01376 -1 0 0
118 2 C 15.999 3.99266 -0.275048 -19.2473 -0.00538645 0.00261241 0.0010176 0 0 0
1171 2 C 15.999 1.94039 -8.84393 -17.5457 0.00292497 0.000182682 0.00353396 -1 0 0
872 1 C 1.008 5.42191 -4.80148 -16.2957 -0.00812953 0.00131763 0.0185903 0 2 0
871 2 C 15.999 4.83796 -4.09964 -16.5832 -0.00461921 -0.000514527 0.00695922 0 2 0
215 1 C 1.008 4.23023 -0.0411604 -17.5926 -0.0168573 -0.00534489 0.0017348 -1 0 0
214 2 C 15.999 4.55448 -0.129268 -16.6963 -0.00086692 0.00136006 -0.00339408 -1 0 0
432 1 C 1.008 4.54405 -2.62543 -15.4554 -9.04497e-05 -0.00631827 0.0190173 0 0 0
645 1 C 1.008 6.53115 -3.37743 -15.7399 -0.0114242 0.00813706 0.00781341 0 0 0
245 1 C 1.008 8.8745 -9.78724 -15.7697 -0.00131518 -0.0176069 -0.00105606 -1 1 0
244 2 C 15.999 8.12675 -9.45269 -16.2649 0.00123781 -0.00107932 0.00630891 -1 1 0
256 2 C 15.999 4.15143 9.84859 -20.8429 0.00154654 0.00171052 0.00492046 0 -1 0
258 1 C 1.008 4.06642 9.57788 -21.7571 0.0052944 -0.000505838 0.00522939 0 -1 0
1173 1 C 1.008 2.74205 -8.64777 -18.0305 0.00737497 -0.015492 0.00451535 -1 0 0
316 2 C 15.999 7.79435 0.427252 -19.0172 -0.00128539 -0.00190841 0.00447742 0 0 0
431 1 C 1.008 3.11428 -2.58817 -14.9592 -0.0131247 0.0181789 -0.0203739 0 0 0
194 1 C 1.008 8.56004 -7.4751 -13.6529 0.0168485 0.0171818 -0.010636 -1 0 0
193 2 C 15.999 8.04607 -6.74773 -13.3022 0.000292574 -0.000453977 0.00169672 -1 0 0
195 1 C 1.008 8.13806 -6.82478 -12.3525 -0.016342 -0.0277867 0.00105137 -1 0 0
430 2 C 15.999 3.91518 -2.06556 -15.0001 -0.00144485 0.00238001 0.00644838 0 0 0
643 2 C 15.999 7.27783 -2.83068 -15.4955 -0.00548194 0.00454105 -0.00226014 0 0 0
644 1 C 1.008 7.92712 -2.99105 -16.1803 -0.0122738 -0.00502448 -0.00647165 0 0 0
615 1 C 1.008 6.32207 -0.14351 -15.4612 0.00442066 -0.0168498 0.0235135 -1 0 0
50 1 C 1.008 -9.29683 0.409531 -19.8834 -0.00131768 0.00358907 -0.004681 0 -1 0
298 2 C 15.999 -7.6503 -0.0515806 -19.1117 0.000296714 -0.00129151 0.00271235 1 1 0
221 1 C 1.008 -3.36351 -0.786816 -15.5157 -0.0105507 0.0247421 -0.0124913 1 -1 0
288 1 C 1.008 -3.93941 8.47382 -15.7688 0.00684016 -0.00291306 -0.0083582 0 0 0
49 2 C 15.999 -10.035 0.125797 -20.4227 -0.00240248 -0.00370094 0.000642384 0 -1 0
171 1 C 1.008 -7.58177 8.51288 -17.4476 -0.00709812 -0.00129337 -0.006878 -1 -1 0
169 2 C 15.999 -7.75695 7.87963 -16.7515 -0.000398522 -0.0027416 -0.00650303 -1 -1 0
90 1 C 1.008 -6.02335 5.95627 -14.8842 -0.0391688 -0.00217596 -0.00397095 0 0 0
89 1 C 1.008 -6.01557 6.66713 -16.2208 -0.0168745 -0.000421401 -0.00291907 0 0 0
599 1 C 1.008 -1.96355 0.93383 -16.3561 -0.0100397 -0.00368822 -0.00477584 0 0 0
299 1 C 1.008 -6.97028 0.622028 -19.1036 -0.00257136 0.0015603 0.0063712 1 1 0
484 2 C 15.999 -7.10302 3.07516 -16.4972 -0.000617036 0.00328224 0.00203604 1 0 0
485 1 C 1.008 -6.92291 3.97255 -16.217 -0.0046308 0.00306132 0.00532508 1 0 0
591 1 C 1.008 -4.09747 8.80626 -19.6131 -0.00446549 -0.0089184 -0.0163849 1 0 0
589 2 C 15.999 -4.21459 7.9169 -19.2791 0.00194334 -0.00592481 -0.00614332 1 0 0
252 1 C 1.008 -7.38833 6.72475 -19.3251 -0.0129231 -0.0145658 0.0134957 0 -1 0
250 2 C 15.999 -6.60451 6.17571 -19.3455 -0.00505342 -0.00257919 -0.00643103 0 -1 0
251 1 C 1.008 -5.87884 6.79592 -19.4161 -0.016142 0.00866322 -0.0215114 0 -1 0
459 1 C 1.008 -5.1524 2.60429 -19.6509 0.000536843 -0.00125697 0.0264305 0 0 0
325 2 C 15.999 -4.2864 4.18328 -19.3319 0.00135685 0.0042677 3.17114e-05 0 0 0
457 2 C 15.999 -5.94878 2.0832 -19.5485 -0.0012767 -0.0044171 -0.0038072 0 0 0
326 1 C 1.008 -5.05765 4.75014 -19.3239 0.000213791 0.00259639 0.00923736 0 0 0
327 1 C 1.008 -3.74387 4.50607 -18.6124 0.0194173 0.0194626 -0.0204163 0 0 0
346 2 C 15.999 -2.42895 1.9849 -19.364 -0.0030581 0.00142195 0.0022782 0 0 0
347 1 C 1.008 -3.02269 2.73079 -19.2783 -0.00593579 -0.00160795 0.00877504 0 0 0
348 1 C 1.008 -3.00684 1.22548 -19.4385 -0.000196243 0.000636999 -0.0117461 0 0 0
458 1 C 1.008 -6.6603 2.72238 -19.5861 -0.000992164 -0.00411988 -0.0041462 0 0 0
455 1 C 1.008 -1.94837 6.3122 -18.6799 -0.00423332 -0.0132325 0.000250026 0 0 0
454 2 C 15.999 -1.86211 6.04607 -19.5953 -0.000227823 -0.00686248 -0.00121522 0 0 0
456 1 C 1.008 -2.71495 6.24163 -19.9834 -0.00233508 -0.0151601 -0.000760703 0 0 0
590 1 C 1.008 -4.17421 8.01074 -18.3273 0.012113 0.00377154 -0.0075238 1 0 0
88 2 C 15.999 -6.09391 5.7988 -15.8258 -0.0025099 -0.00333839 -0.00651334 0 0 0
639 1 C 1.008 -7.54443 4.77312 -19.1014 0.0169744 -0.00503077 -0.0100077 1 0 0
637 2 C 15.999 -8.00532 3.93457 -19.0759 -0.00413377 0.00679838 -0.00207971 1 0 0
638 1 C 1.008 -7.74834 3.54476 -18.2403 -0.006757 0.00419708 -0.00248619 1 0 0
618 1 C 1.008 -0.810173 4.48003 -19.2442 0.010633 -0.00268784 0.00902105 0 0 0
805 2 C 15.999 -3.17977 5.56058 -16.9853 0.00257632 -0.00372581 0.00292451 0 0 0
806 1 C 1.008 -2.68994 5.92041 -16.2459 0.0111423 -0.00287324 -0.00317082 0 0 0
649 2 C 15.999 -4.90173 1.90437 -15.1558 0.00451982 0.00272054 0.00224989 1 0 0
483 1 C 1.008 10.0023 8.27256 -20.5318 -0.000992149 0.00684953 0.00392927 -1 0 0
501 1 C 1.008 -9.46162 5.42893 -16.3796 -0.0014039 -0.00923838 0.00728526 1 -1 0
82 2 C 15.999 -9.34651 7.13334 -19.1236 0.000440682 0.0012659 -0.00319938 1 0 0
84 1 C 1.008 -9.03976 7.88016 -18.6094 0.0107133 -0.00105027 -0.00597072 1 0 0
344 1 C 1.008 -8.01293 1.45904 -16.6054 0.00121052 0.0223537 -0.00116366 0 -1 0
499 2 C 15.999 -8.97538 5.53137 -15.5615 0.00561607 0.000448117 0.00188782 1 -1 0
807 1 C 1.008 -4.09697 5.62269 -16.7187 0.00538069 0.00131954 0.0113678 0 0 0
83 1 C 1.008 -10.0755 6.776 -18.6165 -0.00522798 0.0138849 -0.00245111 1 0 0
342 1 C 1.008 -1.47943 7.12756 -15.8804 -0.000873036 -0.0127884 -0.0121284 0 0 0
500 1 C 1.008 -8.19572 6.02972 -15.8065 -0.00955342 0.0203675 -0.00580323 1 -1 0
340 2 C 15.999 -1.51589 6.36953 -15.297 -0.001347 -0.0031527 0.000392078 0 0 0
345 1 C 1.008 -8.91215 1.22168 -15.4108 -0.00108585 0.0256524 -0.00223285 0 -1 0
343 2 C 15.999 -8.89519 1.17463 -16.3667 0.00508883 0.0102145 -0.00136067 0 -1 0
486 1 C 1.008 -6.42805 2.54963 -16.0677 0.00397832 0.00519792 -0.00284236 1 0 0
287 1 C 1.008 -5.01176 9.14293 -16.6021 -0.00159178 -0.00192008 0.0032999 0 0 0
548 1 C 1.008 -0.727266 9.66561 -16.7564 -0.0181007 0.00194082 0.00152162 -1 1 0
393 1 C 1.008 -0.385049 0.400171 -18.6634 -0.00589194 0.00239268 -0.00260153 0 0 0
651 1 C 1.008 -4.24393 1.23116 -14.9816 0.00189186 -0.00256374 -0.00825596 1 0 0
875 1 C 1.008 -2.13178 3.5723 -16.0313 0.00856558 0.0014066 -0.0128981 0 1 0
286 2 C 15.999 -4.58589 8.2988 -16.4527 -0.00391454 -0.00333855 0.00190874 0 0 0
874 2 C 15.999 -1.63608 2.79391 -15.7771 0.00169314 -0.000463651 -0.0052432 0 1 0
616 2 C 15.999 -0.197925 3.74444 -19.2612 0.00323645 -0.00850219 -0.00629403 0 0 0
383 1 C 1.008 -9.14174 3.66647 -20.384 -2.35517e-05 -7.91886e-05 -0.0101462 0 0 0
617 1 C 1.008 -0.744977 2.98112 -19.4464 -0.00519402 0.000103029 -0.0168578 0 0 0
510 1 C 1.008 -10.0429 -0.316738 -16.9867 0.00104742 0.0092733 -0.00670915 0 0 0
481 2 C 15.999 9.52043 9.0652 -20.7679 0.00100084 0.00444521 -0.00823602 -1 0 0
60 1 C 1.008 -0.680152 7.61653 -19.8838 0.0105978 0.000154529 0.00410854 1 -1 0
598 2 C 15.999 -1.73344 0.263386 -16.9993 -0.00541347 -0.00718478 0.000523252 0 0 0
530 1 C 1.008 0.477797 -8.7074 -18.9355 -0.00941704 -0.021718 -0.00287554 0 1 0
222 1 C 1.008 -2.66033 -0.58307 -14.1906 0.0195286 0.00623304 -0.0256009 1 -1 0
220 2 C 15.999 -3.51111 -0.487263 -14.6187 0.00556228 -0.00418557 -0.000157465 1 -1 0
876 1 C 1.008 -1.52742 2.87739 -14.8298 -0.00149401 0.00560342 -0.00541399 0 1 0
392 1 C 1.008 0.703935 0.581796 -19.6993 -0.0164613 0.0178542 -0.0110048 0 0 0
549 1 C 1.008 -0.488141 8.4756 -17.6612 0.00109355 0.00402515 0.00385227 -1 1 0
1172 1 C 1.008 2.08754 -9.71696 -17.1818 -0.0147834 -0.002931 0.00328791 -1 0 0
537 1 C 1.008 4.49312 -9.28799 -18.1455 -0.00351942 0.00245876 0.00831575 -1 -1 0
536 1 C 1.008 4.61515 9.21699 -17.8272 -0.00042919 0.00229428 0.00637003 -1 -2 0
535 2 C 15.999 4.55035 -9.90222 -17.4136 -0.00237 0.00160175 0.00750673 -1 -1 0
384 1 C 1.008 -9.83801 4.98409 -20.6504 -0.00296792 0.000432411 3.46671e-05 0 0 0
341 1 C 1.008 -0.607172 6.22633 -15.0325 -0.00431168 0.0139134 0.019867 0 0 0
547 2 C 15.999 -0.740754 8.70857 -16.7678 -0.00608354 0.0017695 0.00241529 -1 1 0
137 1 C 1.008 8.59313 5.43435 -17.846 0.0161721 -2.28108e-05 0.000942321 -1 -1 0
136 2 C 15.999 8.87904 6.31959 -17.6205 0.00059881 0.00612943 -0.0034546 -1 -1 0
58 2 C 15.999 -0.185333 8.18226 -19.291 0.00235993 0.00729557 0.00418723 1 -1 0
382 2 C 15.999 -9.90798 4.04393 -20.816 -0.0021009 0.0012989 -0.00526628 0 0 0
317 1 C 1.008 8.27197 0.0191842 -18.295 0.0108677 0.000737671 -0.00206068 0 0 0
207 1 C 1.008 6.40699 1.9488 -16.1614 0.0135725 0.00563998 0.00263107 -1 0 0
269 1 C 1.008 -9.8657 2.82209 -16.9277 0.000289067 0.00819558 -0.0176663 1 1 0
318 1 C 1.008 8.44274 0.511876 -19.7163 -0.00397746 0.0280287 0.00561578 0 0 0
206 1 C 1.008 6.12738 2.76743 -17.4038 0.0258479 -0.00124111 -0.00466266 -1 0 0
205 2 C 15.999 6.18372 2.83354 -16.4506 0.0106335 0.00271822 -0.0040398 -1 0 0
138 1 C 1.008 8.0829 6.76075 -17.3242 -0.00961494 -0.00243829 -0.0181215 -1 -1 0
270 1 C 1.008 9.1011 3.03725 -16.0592 0.00792356 -0.0112094 -0.0021227 0 1 0
268 2 C 15.999 9.53522 3.36104 -16.8485 -0.000830528 0.0040651 -0.00067815 0 1 0