ITEM: TIMESTEP
0
ITEM: NUMBER OF ATOMS
1665
ITEM: BOX BOUNDS pp pp pp
-1.0093999999999999e+01 1.0093999999999999e+01
-9.9900000000000002e+00 9.9900035801999998e+00
-3.2911073999999999e+01 1.8785000000000000e+01
ITEM: ATOMS id type xs ys zs
1162 2 0.415805 0.0658472 0.0012883
1423 3 0.0959778 0.0917718 0.00552216
1424 3 0.196983 0.193829 0.00552216
1425 3 0.196983 0.0917718 0.0449662
1426 3 0.0959778 0.193829 0.0449662
1427 3 0.297989 0.0917718 0.00552216
1428 3 0.398994 0.193829 0.00552216
1429 3 0.398994 0.0917718 0.0449662
1430 3 0.297989 0.193829 0.0449662
1441 3 0.0959778 0.295886 0.00552216
1442 3 0.196983 0.397943 0.00552216
1443 3 0.196983 0.295886 0.0449662
1444 3 0.0959778 0.397943 0.0449662
1445 3 0.297989 0.295886 0.00552216
1446 3 0.398994 0.397943 0.00552216
1447 3 0.398994 0.295886 0.0449662
1448 3 0.297989 0.397943 0.0449662
1459 3 0.0959778 0.5 0.00552216
1461 3 0.196983 0.5 0.0449662
1463 3 0.297989 0.5 0.00552216
1465 3 0.398994 0.5 0.0449662
1504 3 0.0959778 0.0917718 0.0844102
1505 3 0.196983 0.193829 0.0844102
1506 3 0.196983 0.0917718 0.123854
1507 3 0.0959778 0.193829 0.123854
1508 3 0.297989 0.0917718 0.0844102
1509 3 0.398994 0.193829 0.0844102
1510 3 0.398994 0.0917718 0.123854
1511 3 0.297989 0.193829 0.123854
1522 3 0.0959778 0.295886 0.0844102
1523 3 0.196983 0.397943 0.0844102
1524 3 0.196983 0.295886 0.123854
1525 3 0.0959778 0.397943 0.123854
1526 3 0.297989 0.295886 0.0844102
1527 3 0.398994 0.397943 0.0844102
1528 3 0.398994 0.295886 0.123854
1529 3 0.297989 0.397943 0.123854
1540 3 0.0959778 0.5 0.0844102
1542 3 0.196983 0.5 0.123854
1544 3 0.297989 0.5 0.0844102
1546 3 0.398994 0.5 0.123854
1431 3 0.5 0.0917718 0.00552216
1432 3 0.601006 0.193829 0.00552216
1433 3 0.601006 0.0917718 0.0449662
1434 3 0.5 0.193829 0.0449662
1435 3 0.702011 0.0917718 0.00552216
1436 3 0.803017 0.193829 0.00552216
1437 3 0.803017 0.0917718 0.0449662
1438 3 0.702011 0.193829 0.0449662
1439 3 0.904022 0.0917718 0.00552216
1440 3 0.904022 0.193829 0.0449662
1449 3 0.5 0.295886 0.00552216
1450 3 0.601006 0.397943 0.00552216
1451 3 0.601006 0.295886 0.0449662
1452 3 0.5 0.397943 0.0449662
1453 3 0.702011 0.295886 0.00552216
1454 3 0.803017 0.397943 0.00552216
1455 3 0.803017 0.295886 0.0449662
1456 3 0.702011 0.397943 0.0449662
1457 3 0.904022 0.295886 0.00552216
1458 3 0.904022 0.397943 0.0449662
1467 3 0.5 0.5 0.00552216
1469 3 0.601006 0.5 0.0449662
1471 3 0.702011 0.5 0.00552216
1473 3 0.803017 0.5 0.0449662
1475 3 0.904022 0.5 0.00552216
1512 3 0.5 0.0917718 0.0844102
1513 3 0.601006 0.193829 0.0844102
1514 3 0.601006 0.0917718 0.123854
1515 3 0.5 0.193829 0.123854
1516 3 0.702011 0.0917718 0.0844102
1517 3 0.803017 0.193829 0.0844102
1518 3 0.803017 0.0917718 0.123854
1519 3 0.702011 0.193829 0.123854
1520 3 0.904022 0.0917718 0.0844102
1521 3 0.904022 0.193829 0.123854
1530 3 0.5 0.295886 0.0844102
1531 3 0.601006 0.397943 0.0844102
1532 3 0.601006 0.295886 0.123854
1533 3 0.5 0.397943 0.123854
1534 3 0.702011 0.295886 0.0844102
1535 3 0.803017 0.397943 0.0844102
1536 3 0.803017 0.295886 0.123854
1537 3 0.702011 0.397943 0.123854
1538 3 0.904022 0.295886 0.0844102
1539 3 0.904022 0.397943 0.123854
1548 3 0.5 0.5 0.0844102
1550 3 0.601006 0.5 0.123854
1552 3 0.702011 0.5 0.0844102
1554 3 0.803017 0.5 0.123854
1556 3 0.904022 0.5 0.0844102
1460 3 0.196983 0.602057 0.00552216
1462 3 0.0959778 0.602057 0.0449662
1464 3 0.398994 0.602057 0.00552216
1466 3 0.297989 0.602057 0.0449662
1477 3 0.0959778 0.704114 0.00552216
1478 3 0.196983 0.806171 0.00552216
1479 3 0.196983 0.704114 0.0449662
1480 3 0.0959778 0.806171 0.0449662
1481 3 0.297989 0.704114 0.00552216
1482 3 0.398994 0.806171 0.00552216
1483 3 0.398994 0.704114 0.0449662
1484 3 0.297989 0.806171 0.0449662
1495 3 0.0959778 0.908228 0.00552216
1496 3 0.196983 0.908228 0.0449662
1497 3 0.297989 0.908228 0.00552216
1498 3 0.398994 0.908228 0.0449662
1541 3 0.196983 0.602057 0.0844102
1543 3 0.0959778 0.602057 0.123854
1545 3 0.398994 0.602057 0.0844102
1547 3 0.297989 0.602057 0.123854
1558 3 0.0959778 0.704114 0.0844102
1559 3 0.196983 0.806171 0.0844102
1560 3 0.196983 0.704114 0.123854
1561 3 0.0959778 0.806171 0.123854
1562 3 0.297989 0.704114 0.0844102
1563 3 0.398994 0.806171 0.0844102
1564 3 0.398994 0.704114 0.123854
1565 3 0.297989 0.806171 0.123854
1576 3 0.0959778 0.908228 0.0844102
1577 3 0.196983 0.908228 0.123854
1578 3 0.297989 0.908228 0.0844102
1579 3 0.398994 0.908228 0.123854
1421 1 0.661419 0.918963 0.00383434
1468 3 0.601006 0.602057 0.00552216
1470 3 0.5 0.602057 0.0449662
1472 3 0.803017 0.602057 0.00552216
1474 3 0.702011 0.602057 0.0449662
1476 3 0.904022 0.602057 0.0449662
1485 3 0.5 0.704114 0.00552216
1486 3 0.601006 0.806171 0.00552216
1487 3 0.601006 0.704114 0.0449662
1488 3 0.5 0.806171 0.0449662
1489 3 0.702011 0.704114 0.00552216
1490 3 0.803017 0.806171 0.00552216
1491 3 0.803017 0.704114 0.0449662
1492 3 0.702011 0.806171 0.0449662
1493 3 0.904022 0.704114 0.00552216
1494 3 0.904022 0.806171 0.0449662
1499 3 0.5 0.908228 0.00552216
1500 3 0.601006 0.908228 0.0449662
1501 3 0.702011 0.908228 0.00552216
1502 3 0.803017 0.908228 0.0449662
1503 3 0.904022 0.908228 0.00552216
1549 3 0.601006 0.602057 0.0844102
1551 3 0.5 0.602057 0.123854
1553 3 0.803017 0.602057 0.0844102
1555 3 0.702011 0.602057 0.123854
1557 3 0.904022 0.602057 0.123854
1566 3 0.5 0.704114 0.0844102
1567 3 0.601006 0.806171 0.0844102
1568 3 0.601006 0.704114 0.123854
1569 3 0.5 0.806171 0.123854
1570 3 0.702011 0.704114 0.0844102
1571 3 0.803017 0.806171 0.0844102
1572 3 0.803017 0.704114 0.123854
1573 3 0.702011 0.806171 0.123854
1574 3 0.904022 0.704114 0.0844102
1575 3 0.904022 0.806171 0.123854
1580 3 0.5 0.908228 0.0844102
1581 3 0.601006 0.908228 0.123854
1582 3 0.702011 0.908228 0.0844102
1583 3 0.803017 0.908228 0.123854
1584 3 0.904022 0.908228 0.0844102
202 2 0.343791 0.183306 0.275473
204 1 0.315377 0.219821 0.26948
363 1 0.0714075 0.316268 0.276409
413 1 0.400893 0.431346 0.26878
611 1 0.217007 0.106469 0.282796
1585 3 0.0959778 0.0917718 0.163298
1586 3 0.196983 0.193829 0.163298
1587 3 0.196983 0.0917718 0.202742
1588 3 0.0959778 0.193829 0.202742
1589 3 0.297989 0.0917718 0.163298
1590 3 0.398994 0.193829 0.163298
1591 3 0.398994 0.0917718 0.202742
1592 3 0.297989 0.193829 0.202742
1603 3 0.0959778 0.295886 0.163298
1604 3 0.196983 0.397943 0.163298
1605 3 0.196983 0.295886 0.202742
1606 3 0.0959778 0.397943 0.202742
1607 3 0.297989 0.295886 0.163298
1608 3 0.398994 0.397943 0.163298
1609 3 0.398994 0.295886 0.202742
1610 3 0.297989 0.397943 0.202742
1621 3 0.0959778 0.5 0.163298
1623 3 0.196983 0.5 0.202742
1625 3 0.297989 0.5 0.163298
1627 3 0.398994 0.5 0.202742
178 2 0.709108 0.490439 0.284414
179 1 0.708323 0.478364 0.266173
487 2 0.818286 0.308884 0.284777
488 1 0.805186 0.329457 0.268541
489 1 0.809856 0.261911 0.280634
502 2 0.78809 0.174895 0.275465
504 1 0.744018 0.166124 0.281987
1593 3 0.5 0.0917718 0.163298
1594 3 0.601006 0.193829 0.163298
1595 3 0.601006 0.0917718 0.202742
1596 3 0.5 0.193829 0.202742
1597 3 0.702011 0.0917718 0.163298
1598 3 0.803017 0.193829 0.163298
1599 3 0.803017 0.0917718 0.202742
1600 3 0.702011 0.193829 0.202742
1601 3 0.904022 0.0917718 0.163298
1602 3 0.904022 0.193829 0.202742
1611 3 0.5 0.295886 0.163298
1612 3 0.601006 0.397943 0.163298
1613 3 0.601006 0.295886 0.202742
1614 3 0.5 0.397943 0.202742
1615 3 0.702011 0.295886 0.163298
1616 3 0.803017 0.397943 0.163298
1617 3 0.803017 0.295886 0.202742
1618 3 0.702011 0.397943 0.202742
1619 3 0.904022 0.295886 0.163298
1620 3 0.904022 0.397943 0.202742
1629 3 0.5 0.5 0.163298
1631 3 0.601006 0.5 0.202742
1633 3 0.702011 0.5 0.163298
1635 3 0.803017 0.5 0.202742
1637 3 0.904022 0.5 0.163298
380 1 0.492521 0.756093 0.281925
391 2 0.272466 0.560922 0.274697
393 1 0.314299 0.568559 0.265313
457 2 0.0800455 0.677213 0.285705
459 1 0.0718499 0.634329 0.277279
628 2 0.161622 0.874364 0.285082
1622 3 0.196983 0.602057 0.163298
1624 3 0.0959778 0.602057 0.202742
1626 3 0.398994 0.602057 0.163298
1628 3 0.297989 0.602057 0.202742
1639 3 0.0959778 0.704114 0.163298
1640 3 0.196983 0.806171 0.163298
1641 3 0.196983 0.704114 0.202742
1642 3 0.0959778 0.806171 0.202742
1643 3 0.297989 0.704114 0.163298
1644 3 0.398994 0.806171 0.163298
1645 3 0.398994 0.704114 0.202742
1646 3 0.297989 0.806171 0.202742
1657 3 0.0959778 0.908228 0.163298
1658 3 0.196983 0.908228 0.202742
1659 3 0.297989 0.908228 0.163298
1660 3 0.398994 0.908228 0.202742
180 1 0.723766 0.536375 0.28374
311 1 0.951366 0.885675 0.284813
379 2 0.506043 0.792119 0.270418
381 1 0.545638 0.77257 0.26244
385 2 0.72058 0.764578 0.280246
387 1 0.763618 0.760447 0.271927
397 2 0.558368 0.639371 0.273508
399 1 0.556305 0.592989 0.267265
1630 3 0.601006 0.602057 0.163298
1632 3 0.5 0.602057 0.202742
1634 3 0.803017 0.602057 0.163298
1636 3 0.702011 0.602057 0.202742
1638 3 0.904022 0.602057 0.202742
1647 3 0.5 0.704114 0.163298
1648 3 0.601006 0.806171 0.163298
1649 3 0.601006 0.704114 0.202742
1650 3 0.5 0.806171 0.202742
1651 3 0.702011 0.704114 0.163298
1652 3 0.803017 0.806171 0.163298
1653 3 0.803017 0.704114 0.202742
1654 3 0.702011 0.806171 0.202742
1655 3 0.904022 0.704114 0.163298
1656 3 0.904022 0.806171 0.202742
1661 3 0.5 0.908228 0.163298
1662 3 0.601006 0.908228 0.202742
1663 3 0.702011 0.908228 0.163298
1664 3 0.803017 0.908228 0.202742
1665 3 0.904022 0.908228 0.163298
16 2 0.0618949 0.349433 0.380231
17 1 0.0589727 0.390688 0.389932
18 1 0.0185168 0.329476 0.38392
19 2 0.0738187 0.454555 0.427609
35 1 0.303096 0.260408 0.423125
36 1 0.280229 0.190932 0.417393
42 1 0.122232 0.312135 0.427929
45 1 0.341731 0.378459 0.428199
89 1 0.493472 0.496613 0.351609
104 1 0.274351 0.480948 0.392231
105 1 0.313353 0.468145 0.417124
133 2 0.246273 0.457989 0.35973
134 1 0.215308 0.489166 0.351343
135 1 0.224267 0.41564 0.357207
182 1 0.477247 0.164192 0.312261
183 1 0.485028 0.124107 0.28816
187 2 0.297711 0.332941 0.404468
188 1 0.249781 0.324923 0.402844
189 1 0.310033 0.322854 0.386481
203 1 0.329458 0.181277 0.293653
205 2 0.035484 0.23823 0.420714
207 1 0.0544229 0.209801 0.40725
208 2 0.0575603 0.216644 0.329508
209 1 0.0760555 0.243155 0.315193
210 1 0.0330594 0.251351 0.338386
214 2 0.437142 0.215816 0.418823
215 1 0.393118 0.213664 0.426814
217 2 0.175357 0.284766 0.394539
218 1 0.135809 0.300979 0.385462
219 1 0.186579 0.243924 0.385275
220 2 0.315989 0.294198 0.354494
221 1 0.364101 0.289677 0.356074
222 1 0.310925 0.313881 0.337135
226 2 0.303482 0.343789 0.306137
227 1 0.282271 0.326897 0.290414
228 1 0.340606 0.368483 0.298524
238 2 0.250301 0.155572 0.388048
239 1 0.212999 0.125549 0.391753
240 1 0.287022 0.12375 0.387788
289 2 0.0920627 0.446257 0.303994
290 1 0.120271 0.47696 0.313987
291 1 0.0495017 0.453128 0.312295
337 2 0.444113 0.268897 0.370424
338 1 0.48338 0.297161 0.372789
339 1 0.437831 0.25357 0.388345
343 2 0.485327 0.111273 0.386023
344 1 0.482414 0.148078 0.398314
349 2 0.299895 0.172921 0.325076
350 1 0.289264 0.206236 0.338215
351 1 0.343168 0.157858 0.331349
361 2 0.0874149 0.310242 0.293752
362 1 0.0958228 0.356341 0.299202
407 1 0.306784 0.478938 0.332145
408 1 0.353398 0.467223 0.309269
412 2 0.403624 0.418828 0.287151
414 1 0.451635 0.415546 0.28915
535 2 0.060361 0.156091 0.378115
536 1 0.0139938 0.144616 0.374182
537 1 0.0726807 0.173709 0.361072
592 2 0.147129 0.0785907 0.403898
593 1 0.112235 0.101243 0.394059
594 1 0.134654 0.0312635 0.401806
595 2 0.0875156 0.0792552 0.317922
596 1 0.126461 0.0986841 0.309426
597 1 0.0634346 0.119909 0.322
598 2 0.359334 0.0765458 0.401507
599 1 0.402235 0.0847729 0.393276
600 1 0.371482 0.0827652 0.419694
610 2 0.194232 0.137138 0.294525
612 1 0.229008 0.146753 0.307388
613 2 0.428459 0.1581 0.340733
614 1 0.445343 0.127088 0.353724
615 1 0.435148 0.200518 0.35
3 1 0.565203 0.491839 0.388539
37 2 0.673241 0.227876 0.395376
38 1 0.698548 0.218636 0.411389
39 1 0.707883 0.248805 0.384984
88 2 0.527569 0.464023 0.356513
90 1 0.558352 0.467742 0.342121
91 2 0.5395 0.397809 0.291147
92 1 0.574972 0.413231 0.302654
93 1 0.536768 0.351093 0.295718
97 2 0.705137 0.476685 0.367828
98 1 0.67045 0.488599 0.380449
99 1 0.735354 0.451696 0.379092
118 2 0.640509 0.438314 0.323885
119 1 0.66554 0.456031 0.338752
120 1 0.667272 0.45715 0.309574
130 2 0.81653 0.0678912 0.318344
131 1 0.78374 0.08008 0.331566
132 1 0.849287 0.103086 0.319453
181 2 0.504748 0.162719 0.296647
190 2 0.556023 0.342434 0.378411
191 1 0.54416 0.387021 0.37179
192 1 0.589667 0.328363 0.365964
196 2 0.597464 0.310096 0.428026
197 1 0.575886 0.331188 0.41311
198 1 0.620104 0.274038 0.418798
250 2 0.633896 0.190625 0.310945
251 1 0.589801 0.185033 0.30323
252 1 0.634549 0.237295 0.31635
256 2 0.650899 0.307791 0.340391
257 1 0.695303 0.301502 0.347497
258 1 0.653524 0.353526 0.33364
274 2 0.875815 0.328432 0.331951
275 1 0.855444 0.318838 0.314994
276 1 0.899698 0.369488 0.327332
331 2 0.598118 0.153732 0.361615
332 1 0.608169 0.168881 0.344004
333 1 0.620965 0.187456 0.372095
345 1 0.528015 0.120883 0.377508
475 2 0.899894 0.460067 0.392399
476 1 0.854947 0.445164 0.397131
477 1 0.918714 0.471633 0.408955
484 2 0.926784 0.450415 0.315788
485 1 0.900224 0.46006 0.300749
486 1 0.913306 0.486328 0.327605
490 2 0.781176 0.40117 0.400723
491 1 0.778545 0.355702 0.394086
492 1 0.756687 0.397773 0.417165
503 1 0.81545 0.151805 0.288019
505 2 0.775752 0.282174 0.365804
506 1 0.79466 0.237702 0.369479
507 1 0.80998 0.300167 0.354294
520 2 0.811312 0.153362 0.378455
521 1 0.822432 0.12695 0.393883
522 1 0.774463 0.126653 0.371579
532 2 0.909744 0.164404 0.308028
533 1 0.935017 0.134441 0.296387
534 1 0.924641 0.207972 0.302028
589 2 0.849082 0.0606334 0.417804
590 1 0.87687 0.0241614 0.411023
591 1 0.882019 0.0963727 0.420462
601 2 0.629725 0.0863093 0.428097
602 1 0.637043 0.104313 0.410998
603 1 0.633325 0.0375797 0.424993
604 2 0.715117 0.0787833 0.355919
605 1 0.670207 0.0958747 0.356193
606 1 0.707276 0.0310872 0.351383
634 2 0.925729 0.323751 0.381894
635 1 0.91731 0.371057 0.384966
636 1 0.910915 0.319074 0.363984
643 2 0.913262 0.182076 0.418187
644 1 0.957579 0.201046 0.420058
645 1 0.89352 0.214586 0.406725
661 2 0.93742 0.14005 0.358912
662 1 0.893406 0.144497 0.366171
663 1 0.929675 0.149784 0.340665
67 2 0.0724476 0.637334 0.346573
68 1 0.061645 0.666189 0.332145
69 1 0.0826556 0.669852 0.360107
103 2 0.285449 0.501989 0.408847
153 1 0.4828 0.930089 0.370505
154 2 0.196399 0.825549 0.40147
155 1 0.201887 0.813703 0.419754
156 1 0.164178 0.792325 0.395461
244 2 0.438287 0.561605 0.341521
245 1 0.399818 0.545565 0.331712
246 1 0.416319 0.573842 0.357956
286 2 0.322495 0.705927 0.407432
287 1 0.33516 0.747467 0.398657
288 1 0.275681 0.704705 0.403671
292 2 0.370634 0.590965 0.384828
293 1 0.359196 0.633949 0.392619
294 1 0.339788 0.561229 0.393775
298 2 0.322575 0.830861 0.381218
299 1 0.276113 0.835234 0.386658
300 1 0.342305 0.869225 0.390393
322 2 0.317701 0.69556 0.325393
323 1 0.356548 0.671192 0.330592
324 1 0.333099 0.742079 0.326196
325 2 0.160019 0.54016 0.332613
326 1 0.12619 0.568899 0.340671
327 1 0.183105 0.574766 0.32267
334 2 0.484257 0.757015 0.325263
335 1 0.440199 0.777704 0.326749
346 2 0.367656 0.824067 0.330917
347 1 0.36605 0.869352 0.32366
348 1 0.35029 0.831155 0.348447
358 2 0.204332 0.649187 0.303841
359 1 0.24103 0.671373 0.313046
360 1 0.230061 0.623996 0.291011
370 2 0.0945147 0.745679 0.381701
371 1 0.0678091 0.759696 0.39643
372 1 0.0761885 0.772321 0.367328
392 1 0.29016 0.539856 0.290379
406 2 0.329696 0.503031 0.318352
454 2 0.394045 0.951288 0.308754
455 1 0.439034 0.934675 0.306177
456 1 0.395171 0.992128 0.298523
458 1 0.123395 0.669483 0.29379
607 2 0.0525543 0.814643 0.338536
608 1 0.0147209 0.815515 0.32704
609 1 0.072863 0.857656 0.334213
629 1 0.138691 0.901246 0.298252
630 1 0.167503 0.83247 0.293993
694 2 0.119488 0.941435 0.40548
695 1 0.0751812 0.928093 0.400976
696 1 0.146027 0.902378 0.400273
697 2 0.0801133 0.941809 0.319189
698 1 0.0901888 0.990108 0.319912
699 1 0.0324905 0.943654 0.317906
700 2 0.369414 0.937833 0.407065
701 1 0.358618 0.984502 0.403189
702 1 0.37953 0.939311 0.425384
1 2 0.601719 0.509907 0.398595
2 1 0.594329 0.557998 0.396069
52 2 0.582966 0.635191 0.379379
53 1 0.573456 0.637025 0.360924
54 1 0.557518 0.673889 0.385627
79 2 0.655678 0.788176 0.404143
80 1 0.678603 0.744846 0.402043
81 1 0.69404 0.818283 0.403324
82 2 0.719091 0.672148 0.395319
83 1 0.686181 0.643509 0.387383
84 1 0.728058 0.648622 0.411675
124 2 0.526572 0.75638 0.393149
125 1 0.569614 0.771097 0.399806
126 1 0.503035 0.798005 0.391282
136 2 0.89107 0.735076 0.298692
137 1 0.911795 0.779113 0.299776
138 1 0.921603 0.711376 0.287715
151 2 0.511978 0.899527 0.361591
152 1 0.504332 0.91083 0.343468
157 2 0.650883 0.862224 0.303902
158 1 0.677038 0.826992 0.295072
159 1 0.645019 0.840914 0.320915
160 2 0.626804 0.831909 0.353936
161 1 0.586063 0.854656 0.359358
162 1 0.638482 0.807769 0.369764
262 2 0.545336 0.636436 0.327047
263 1 0.523814 0.680735 0.326711
264 1 0.506961 0.608132 0.331453
280 2 0.821219 0.747817 0.344665
281 1 0.793801 0.709659 0.348938
282 1 0.840919 0.734853 0.328102
304 2 0.688617 0.652677 0.307292
305 1 0.715037 0.629769 0.320639
306 1 0.644124 0.646247 0.313881
310 2 0.94586 0.864248 0.301533
312 1 0.905861 0.887242 0.307773
316 2 0.758645 0.586024 0.343148
317 1 0.73763 0.549187 0.352544
318 1 0.805282 0.574246 0.345258
336 1 0.5112 0.792822 0.332211
386 1 0.717402 0.722624 0.290215
398 1 0.552898 0.632862 0.292063
472 2 0.889015 0.546598 0.351221
473 1 0.916965 0.583624 0.35624
474 1 0.893436 0.516527 0.366194
538 2 0.754968 0.87888 0.398401
539 1 0.791089 0.873812 0.385824
540 1 0.780212 0.892734 0.413643
616 2 0.517358 0.894792 0.305792
617 1 0.565402 0.893328 0.303956
618 1 0.505497 0.860833 0.292838
619 2 0.857272 0.869704 0.363895
620 1 0.849797 0.822709 0.358946
621 1 0.855085 0.891234 0.346932
649 2 0.917484 0.948597 0.400935
650 1 0.901001 0.924963 0.385657
651 1 0.921405 0.910562 0.412775
670 2 0.83393 0.932604 0.317216
671 1 0.787018 0.925911 0.320659
672 1 0.833943 0.982229 0.316528
703 2 0.657412 0.9558 0.422539
704 1 0.681673 0.927637 0.410349
706 2 0.700011 0.950332 0.340876
707 1 0.676669 0.932791 0.326045
708 1 0.690878 0.915669 0.353621
7 2 0.135829 0.447452 0.501885
8 1 0.147869 0.409122 0.512707
9 1 0.179129 0.459587 0.495079
20 1 0.0943404 0.412351 0.433093
21 1 0.11101 0.485111 0.428803
34 2 0.302498 0.216124 0.431195
40 2 0.128925 0.336952 0.443971
41 1 0.162491 0.308751 0.45223
43 2 0.357156 0.412901 0.44034
44 1 0.401458 0.39604 0.444736
49 2 0.230822 0.160914 0.509323
50 1 0.217354 0.184735 0.493604
51 1 0.192516 0.169792 0.520489
61 2 0.212956 0.250125 0.469327
62 1 0.242612 0.278521 0.479592
63 1 0.24364 0.2322 0.456261
76 2 0.402619 0.0641321 0.452045
77 1 0.408325 0.0164992 0.455638
78 1 0.364924 0.0733239 0.463381
109 2 0.278084 0.456241 0.480567
110 1 0.30966 0.442519 0.466983
111 1 0.305432 0.488564 0.490254
121 2 0.221155 0.481609 0.561002
123 1 0.176225 0.465968 0.55773
169 2 0.287704 0.0542301 0.482415
170 1 0.253244 0.0621979 0.469541
171 1 0.275394 0.0888339 0.494863
172 2 0.499545 0.0862376 0.553063
174 1 0.451794 0.0806476 0.551846
184 2 0.282476 0.33127 0.502758
185 1 0.246487 0.332464 0.515525
186 1 0.280922 0.377143 0.496084
199 2 0.166993 0.332011 0.531073
200 1 0.144299 0.35659 0.545046
201 1 0.152679 0.286383 0.534385
206 1 0.0512812 0.217152 0.436792
216 1 0.465325 0.199487 0.432903
235 2 0.474868 0.356011 0.457096
237 1 0.457592 0.327366 0.471075
241 2 0.414329 0.294199 0.498297
242 1 0.371235 0.315325 0.501234
243 1 0.439388 0.30736 0.513755
265 2 0.0961616 0.418467 0.562137
267 1 0.0501155 0.428259 0.557359
313 2 0.128113 0.189582 0.542227
314 1 0.0870796 0.206815 0.549577
315 1 0.13757 0.154445 0.554828
340 2 0.496049 0.30679 0.540644
341 1 0.499909 0.314984 0.559211
367 2 0.174219 0.0946268 0.454773
368 1 0.168238 0.0978786 0.435882
369 1 0.171306 0.0457716 0.456384
409 2 0.32402 0.393349 0.564067
410 1 0.286427 0.424476 0.56218
411 1 0.352653 0.408445 0.549748
419 1 0.341662 0.238768 0.561061
420 1 0.333458 0.309603 0.571052
421 2 0.350566 0.197542 0.530076
422 1 0.376282 0.223178 0.517475
423 1 0.307905 0.192616 0.521178
424 2 0.409402 0.442359 0.529115
425 1 0.453437 0.457645 0.533254
426 1 0.390424 0.481737 0.520557
436 2 0.363842 0.0674634 0.542818
437 1 0.365576 0.1145 0.5372
438 1 0.318419 0.0648933 0.54834
494 1 0.0290483 0.487309 0.456929
495 1 0.0593797 0.492869 0.483264
523 2 0.0808007 0.188288 0.466099
524 1 0.11188 0.151127 0.463787
525 1 0.108667 0.22115 0.474343
526 2 0.0409869 0.348122 0.484447
527 1 0.0706901 0.341773 0.46968
528 1 0.0635189 0.383806 0.493599
541 2 0.0684542 0.0473514 0.524299
542 1 0.0216925 0.041088 0.519583
543 1 0.0762964 0.0917884 0.517734
584 1 0.482569 0.110767 0.452241
4 2 0.540164 0.470928 0.476509
5 1 0.554118 0.447156 0.492116
6 1 0.517635 0.434834 0.467206
28 2 0.887072 0.166255 0.493549
29 1 0.895286 0.193686 0.508995
30 1 0.902218 0.19658 0.480127
31 2 0.621042 0.304928 0.480541
32 1 0.638223 0.260033 0.483922
33 1 0.609399 0.301315 0.462271
46 2 0.900037 0.245383 0.536519
47 1 0.862312 0.275541 0.534052
48 1 0.905263 0.246856 0.555086
58 2 0.739602 0.212582 0.439808
59 1 0.7453 0.170346 0.449026
60 1 0.755859 0.24395 0.452922
73 2 0.761892 0.117586 0.512419
74 1 0.723079 0.13324 0.502924
75 1 0.797394 0.131456 0.50076
94 2 0.873261 0.442422 0.51196
95 1 0.841666 0.478751 0.508539
96 1 0.897025 0.439904 0.495701
100 2 0.683638 0.383388 0.555583
101 1 0.677773 0.421224 0.56742
102 1 0.651379 0.394847 0.542002
173 1 0.514373 0.0402569 0.550215
175 2 0.659353 0.246663 0.558407
177 1 0.66314 0.295186 0.556814
211 2 0.584253 0.39201 0.517769
212 1 0.600675 0.360325 0.504562
213 1 0.549323 0.364617 0.525693
223 2 0.645007 0.169124 0.487619
224 1 0.611736 0.173324 0.5014
225 1 0.618752 0.150267 0.473748
236 1 0.507268 0.326995 0.448965
285 1 0.691661 0.468983 0.460587
328 2 0.563234 0.188153 0.52948
329 1 0.601743 0.198963 0.540236
330 1 0.542393 0.151058 0.539117
342 1 0.516028 0.262361 0.538402
352 2 0.785991 0.210271 0.569813
353 1 0.741574 0.215067 0.562382
354 1 0.804511 0.17549 0.558959
355 2 0.710666 0.387363 0.445523
356 1 0.668654 0.364691 0.442435
357 1 0.732091 0.35672 0.4578
508 2 0.786102 0.300168 0.475913
509 1 0.83459 0.299711 0.473651
510 1 0.783302 0.303815 0.494742
511 2 0.797321 0.33532 0.527773
512 1 0.758285 0.354348 0.536064
513 1 0.82281 0.375321 0.523107
556 2 0.838956 0.0771251 0.552315
557 1 0.806897 0.0878742 0.538461
558 1 0.829331 0.0297815 0.55545
583 2 0.518301 0.143582 0.45054
585 1 0.553715 0.117886 0.442338
586 2 0.75208 0.078815 0.453767
587 1 0.784573 0.0762029 0.439609
588 1 0.709626 0.0790353 0.444904
646 2 0.962149 0.442263 0.551986
647 1 0.940578 0.41941 0.566543
648 1 0.932946 0.429177 0.537726
658 2 0.920236 0.299814 0.469269
659 1 0.938586 0.30087 0.452012
660 1 0.959373 0.313825 0.479264
664 2 0.934808 0.0472915 0.513357
665 1 0.907282 0.0571083 0.528326
666 1 0.920262 0.0833945 0.501788
13 2 0.210547 0.658599 0.465623
14 1 0.199741 0.613695 0.459167
15 1 0.258879 0.655353 0.46652
25 2 0.461321 0.589364 0.477094
26 1 0.483286 0.547859 0.47191
27 1 0.496227 0.607261 0.488256
55 2 0.352841 0.550363 0.50562
56 1 0.329164 0.588631 0.513137
57 1 0.387763 0.572697 0.495638
64 2 0.283018 0.655526 0.5283
65 1 0.280271 0.703872 0.525569
66 1 0.237548 0.647166 0.533804
106 2 0.349853 0.661786 0.458386
107 1 0.34991 0.669201 0.439688
108 1 0.390796 0.636136 0.460972
117 1 0.335614 0.655487 0.556446
122 1 0.212637 0.52149 0.571324
128 1 0.255403 0.772678 0.565936
139 2 0.089779 0.561094 0.533773
140 1 0.0418093 0.567464 0.532553
141 1 0.0966543 0.519469 0.524469
142 2 0.0796274 0.709008 0.473812
143 1 0.120119 0.683715 0.470522
144 1 0.0889091 0.725468 0.49131
148 2 0.476733 0.726177 0.561248
149 1 0.476796 0.768971 0.570589
150 1 0.43346 0.707846 0.566479
166 2 0.159064 0.663031 0.552874
167 1 0.175012 0.64031 0.568508
168 1 0.132647 0.626269 0.545242
255 1 0.495419 0.630421 0.563501
259 2 0.196218 0.528584 0.447238
260 1 0.225836 0.524435 0.432224
261 1 0.219843 0.500641 0.459667
295 2 0.408632 0.793043 0.520464
296 1 0.423469 0.837773 0.525211
297 1 0.439747 0.764832 0.529962
319 2 0.114901 0.768584 0.520107
320 1 0.132237 0.731955 0.530721
321 1 0.113308 0.80429 0.532653
460 2 0.0568849 0.794424 0.431887
461 1 0.0623706 0.755133 0.443011
462 1 0.0730914 0.828557 0.443892
493 2 0.0189513 0.504612 0.47416
547 2 0.276594 0.793506 0.532262
548 1 0.26395 0.835056 0.523617
549 1 0.324566 0.794023 0.529251
559 2 0.143927 0.937507 0.536421
560 1 0.117026 0.975586 0.530346
561 1 0.132806 0.936211 0.554552
562 2 0.260319 0.922716 0.510458
563 1 0.218047 0.927426 0.519829
564 1 0.253063 0.954288 0.496455
566 1 0.46949 0.914407 0.484531
574 2 0.11852 0.85582 0.474423
575 1 0.111615 0.834061 0.49106
576 1 0.15737 0.831241 0.468055
577 2 0.223384 0.790527 0.452663
578 1 0.218364 0.743221 0.457375
579 1 0.268453 0.799515 0.458799
580 2 0.354294 0.796502 0.471747
581 1 0.355856 0.749503 0.466291
582 1 0.374932 0.792658 0.488859
667 2 0.387897 0.930005 0.464845
668 1 0.379604 0.881671 0.463651
669 1 0.348586 0.944058 0.474331
675 1 0.483815 0.929758 0.552932
676 2 0.182453 0.961825 0.453148
677 1 0.168539 0.954251 0.435226
678 1 0.157369 0.926742 0.46198
679 2 0.380147 0.930503 0.536681
680 1 0.381243 0.979483 0.537176
681 1 0.337225 0.923516 0.528246
10 2 0.734512 0.615681 0.442706
11 1 0.709569 0.580448 0.451388
12 1 0.742719 0.647377 0.456745
22 2 0.587016 0.859642 0.447659
23 1 0.600051 0.814366 0.443161
24 1 0.561199 0.853436 0.463285
70 2 0.749208 0.711005 0.481881
71 1 0.7008 0.714744 0.483991
72 1 0.761282 0.757401 0.478042
85 2 0.803266 0.608068 0.550944
86 1 0.796595 0.582333 0.534966
87 1 0.808037 0.653309 0.543653
112 2 0.618885 0.721478 0.491513
113 1 0.61232 0.757569 0.503991
114 1 0.595737 0.683872 0.499683
247 2 0.785984 0.545148 0.503481
248 1 0.814976 0.570981 0.491999
249 1 0.747516 0.53624 0.49241
253 2 0.509024 0.584638 0.560146
271 2 0.615003 0.719416 0.558628
272 1 0.567591 0.721101 0.554969
279 1 0.939524 0.6114 0.563368
283 2 0.6781 0.508802 0.470321
284 1 0.630038 0.503246 0.469923
301 2 0.563831 0.607014 0.51261
302 1 0.54424 0.596503 0.529541
303 1 0.597172 0.572472 0.511299
307 2 0.714371 0.817725 0.556666
308 1 0.675292 0.790129 0.552721
309 1 0.710737 0.852421 0.543425
364 2 0.794385 0.841899 0.482043
365 1 0.791709 0.871939 0.466975
366 1 0.842479 0.840504 0.484582
400 2 0.670571 0.592664 0.564833
401 1 0.716917 0.602177 0.560918
402 1 0.649671 0.635561 0.560827
463 2 0.927967 0.849918 0.493557
464 1 0.924832 0.846906 0.512423
465 1 0.949067 0.892922 0.491182
466 2 0.898165 0.829527 0.54532
467 1 0.871062 0.791816 0.539411
468 1 0.919064 0.808746 0.560554
478 2 0.90563 0.595004 0.483466
479 1 0.943613 0.573116 0.475464
480 1 0.910285 0.641112 0.477066
481 2 0.806589 0.733111 0.530147
482 1 0.770654 0.759829 0.537334
483 1 0.791277 0.725007 0.512371
565 2 0.505081 0.898073 0.495545
567 1 0.503587 0.929364 0.510066
568 2 0.613307 0.840733 0.518161
569 1 0.57253 0.858615 0.510574
570 1 0.643646 0.877695 0.515538
571 2 0.733127 0.918954 0.518868
572 1 0.731824 0.962103 0.51033
573 1 0.754591 0.890995 0.505541
637 2 0.953642 0.574106 0.532821
638 1 0.931964 0.581822 0.516091
639 1 0.947488 0.52611 0.535385
640 2 0.942125 0.724721 0.470135
641 1 0.989655 0.716512 0.471469
642 1 0.938045 0.768125 0.478827
652 2 0.922976 0.832429 0.428684
653 1 0.901444 0.794626 0.43686
654 1 0.969548 0.819023 0.429764
673 2 0.522171 0.951647 0.545413
674 1 0.557687 0.93633 0.556946
688 2 0.824452 0.939352 0.558968
689 1 0.789862 0.930167 0.546199
690 1 0.855918 0.90365 0.554363
691 2 0.784931 0.937898 0.445464
692 1 0.810586 0.979051 0.444789
693 1 0.740427 0.955154 0.442443
705 1 0.629243 0.922583 0.431345
194 1 0.489509 0.310284 0.600192
266 1 0.0943397 0.42448 0.580903
268 2 0.4133 0.447212 0.599649
269 1 0.379656 0.428084 0.588192
270 1 0.451431 0.418877 0.595361
403 2 0.112075 0.439486 0.614961
404 1 0.157326 0.423676 0.614852
405 1 0.103726 0.442568 0.633676
418 2 0.33764 0.263209 0.577398
433 2 0.267641 0.293736 0.622176
434 1 0.225047 0.271267 0.61903
435 1 0.288627 0.289586 0.605203
439 2 0.449016 0.235325 0.607319
440 1 0.428184 0.217966 0.62294
441 1 0.409937 0.240241 0.59621
448 2 0.163838 0.210731 0.616024
449 1 0.166611 0.169429 0.606067
450 1 0.165938 0.19246 0.633679
451 2 0.413205 0.064906 0.635953
452 1 0.413822 0.0428526 0.619194
453 1 0.38951 0.10684 0.632816
514 2 0.0526236 0.21369 0.586792
515 1 0.0908979 0.227418 0.597164
516 1 0.0541042 0.165698 0.589472
622 2 0.141698 0.0954835 0.585507
623 1 0.116637 0.0546456 0.583522
624 1 0.180399 0.0792356 0.595231
625 2 0.248837 0.06477 0.616464
626 1 0.295313 0.0740642 0.618271
627 1 0.249376 0.0159447 0.613168
895 2 0.49254 0.162723 0.661125
896 1 0.465986 0.161535 0.676999
897 1 0.473936 0.124397 0.652035
916 2 0.343792 0.184337 0.638214
917 1 0.330287 0.182516 0.656462
918 1 0.317061 0.222473 0.632554
922 2 0.0600533 0.217374 0.694316
923 1 0.0781583 0.244075 0.680012
924 1 0.0315656 0.25049 0.702197
936 1 0.311135 0.314227 0.701012