1665
Atoms. Timestep: 2345
H 4.06097 0.878202 -13.2038
O 4.00875 1.62409 -13.832
O 3.23078 0.403121 -13.4264
H -0.536139 -0.667901 -7.65931
O 0.0493301 -1.14126 -7.0312
O -0.533992 -1.27211 -8.43043
H -7.74686 0.00987459 -7.76867
O -7.66722 -0.736874 -7.13411
O -6.91793 -0.083206 -8.2753
H 6.21671 3.42766 -12.3471
O 5.9959 2.71071 -11.7249
O 6.40779 4.16664 -11.7328
H -5.36319 4.74796 -9.19157
O -5.56696 3.94347 -9.71278
O -4.41174 4.60738 -9.01232
H -8.51659 -4.1198 -14.4211
O -8.52949 -3.50361 -15.1845
O -9.47558 -4.26375 -14.2795
H -8.25959 1.31779 -11.2169
O -7.99127 0.377228 -11.2773
O -8.51386 1.51635 -12.1433
H 2.80132 7.32614 -8.53504
O 2.70653 6.48687 -8.05104
O 2.24198 7.91007 -7.98289
H -1.08484 2.07413 -7.99352
O -0.811032 1.13241 -7.98979
O -0.370872 2.44816 -7.43718
H 8.56639 -5.98561 -7.47963
O 8.15246 -5.34991 -6.85429
O 8.81731 -5.39987 -8.22243
H 2.6003 -2.48751 -9.12803
O 2.08964 -3.26451 -8.81663
O 2.1801 -2.39084 -10.0065
H -3.50293 -5.9147 -10.7385
O -3.77766 -5.10521 -11.2238
O -4.00513 -6.58892 -11.2616
H 3.29097 -4.40035 -12.8345
O 3.94765 -4.56912 -12.1229
O 3.89025 -4.22509 -13.5882
H -7.50692 -1.32418 -10.9124
O -6.70483 -1.15465 -10.3854
O -7.29056 -2.18291 -11.3401
H -3.33314 -1.70651 -10.6787
O -2.44295 -1.95539 -10.3479
O -3.57774 -2.50767 -11.1908
H 7.37791 -4.3226 -5.66893
O 7.01599 -3.43069 -5.86578
O 7.99272 -4.14031 -4.92802
H -6.20261 -6.65854 -6.36849
O -5.91002 -6.29891 -7.23883
O -6.72314 -5.89514 -6.03999
H 3.67903 2.5821 -15.4311
O 2.91325 2.13782 -15.8562
O 3.21264 3.42488 -15.2057
H -3.73712 1.27672 -7.8309
O -4.02433 2.04673 -7.28988
O -2.82201 1.5672 -8.02798
H 5.27544 -4.66872 -10.9793
O 5.22285 -5.56634 -10.5873
O 5.69357 -4.19701 -10.2272
H -5.34683 -5.50555 -8.66481
O -5.35822 -4.54173 -8.46876
O -4.55313 -5.59551 -9.23092
H -4.17027 3.48516 -6.29235
O -4.01698 4.4298 -6.47831
O -5.06101 3.5571 -5.88432
H -8.96703 2.08026 -13.805
O -8.49303 2.22664 -14.6497
O -9.15171 3.0114 -13.5543
H 5.27956 4.71176 -7.46888
O 4.33427 4.94316 -7.37672
O 5.66017 5.52948 -7.85718
H 6.32729 -7.59824 -7.24291
O 5.80725 -7.37 -8.0414
O 7.15064 -7.09849 -7.42937
H -1.85732 -8.315 -10.2663
O -2.34846 -9.03218 -9.80965
O -2.45786 -7.56042 -10.1434
H 4.16036 6.6485 -14.3322
O 4.84508 5.98296 -14.5477
O 4.53344 7.0271 -13.506
H 5.74048 4.39678 -14.8297
O 5.14884 3.67164 -15.0987
O 6.02551 4.05895 -13.9473
H 5.9308 2.09722 -5.33059
O 5.97341 2.07606 -6.3084
O 6.77005 2.5616 -5.1212
H 1.99085 -0.400345 -14.4647
O 1.1183 0.0224909 -14.6322
O 2.31283 -0.607171 -15.367
H -0.20571 -2.7149 -18.8363
O 0.69191 -2.82252 -19.1704
O -0.514905 -3.64196 -18.7901
H 7.8998 0.182016 -7.36738
O 7.29291 0.901586 -7.6519
O 8.63497 0.313939 -7.99521
H 5.42168 -0.916431 -14.8145
O 4.9975 -0.27128 -14.2117
O 5.68761 -1.59269 -14.1603
H 3.7861 -2.22277 -3.73255
O 3.46558 -1.36907 -3.38186
O 3.80778 -2.03849 -4.6941
H -4.42275 0.383469 -12.177
O -4.79991 -0.0620193 -12.9719
O -4.00675 -0.370474 -11.7108
H -2.56708 4.35621 -9.10496
O -2.60239 4.13486 -10.0592
O -2.006 3.63534 -8.75645
H -5.31 -0.540667 -9.16623
O -4.57388 -0.893895 -9.71693
O -4.83123 0.207482 -8.73662
H 2.5373 5.10516 -6.75967
O 2.33709 5.29948 -5.83275
O 1.95903 4.33061 -6.89702
H -2.73655 2.93049 -3.91087
O -3.17105 3.79053 -3.72139
O -3.08597 2.78848 -4.81092
H 3.3037 -1.40629 -16.7011
O 4.1633 -1.26358 -16.258
O 3.45816 -0.994871 -17.5831
H -5.80422 0.490138 -3.88278
O -5.95352 1.40023 -3.57013
O -6.72346 0.188169 -4.0125
H 2.26899 4.8338 -15.0509
O 2.85696 5.50538 -14.648
O 1.6447 5.40119 -15.5377
H -3.91632 5.39545 -3.7636
O -3.09415 5.93154 -3.7627
O -4.28061 5.6476 -4.63781
H 5.97336 -6.97902 -17.4322
O 5.9892 -6.83915 -16.4653
O 6.86786 -6.68306 -17.6976
H -5.35023 -0.768968 -14.4948
O -6.17118 -0.49336 -14.9417
O -4.99542 -1.37185 -15.1681
H 5.94003 5.91022 -19.1819
O 5.91774 6.88825 -19.0305
O 6.62817 5.85482 -19.8527
H -8.28203 2.06784 -5.97352
O -9.11938 2.38191 -6.36554
O -8.05764 1.32401 -6.56341
H -7.26635 5.61272 -7.27287
O -6.56251 5.34392 -7.89943
O -6.98727 5.11638 -6.47183
H 8.28329 6.66895 -1.84682
O 8.61613 5.75104 -1.93333
O 7.34525 6.50386 -1.61021
H -1.57985 6.76365 -3.65693
O -1.61114 7.70199 -3.38803
O -1.23507 6.37229 -2.83073
H 0.65508 6.40819 -16.6678
O 0.962273 6.30909 -17.5978
O -0.217971 6.83928 -16.7868
H -7.03038 6.23595 -13.1117
O -6.97988 6.43133 -12.1539
O -7.77753 5.60648 -13.1572
H 1.67777 5.8836 -19.1907
O 2.38506 5.20456 -19.1241
O 2.07153 6.48405 -19.8346
H 2.56137 8.26905 -15.8582
O 1.86577 7.62459 -16.0772
O 3.17658 7.72216 -15.323
H 5.58152 -3.30378 -1.90087
O 4.90316 -2.86635 -2.45448
O 5.68121 -4.14343 -2.39619
H -6.57497 3.96048 -5.15108
O -6.45304 3.76004 -4.19941
O -7.23384 3.26523 -5.39002
H -5.55481 -9.17464 -7.64318
O -6.08836 -9.03558 -8.457
O -5.73847 -8.3426 -7.1695
H -0.561459 -6.95038 -4.99798
O -0.176422 -7.84391 -5.08914
O -1.39826 -7.17342 -4.55414
H 2.94998 -4.85674 -3.91141
O 2.55 -5.05381 -3.03648
O 3.16055 -3.90602 -3.8146
H 3.7102 0.0160462 -19.0294
O 2.98121 0.505411 -19.4459
O 4.30662 0.744906 -18.7754
H -1.21646 -5.2682 -18.7065
O -1.491 -5.73459 -17.8903
O -2.09389 -5.07755 -19.0929
H -5.65373 -2.92268 -7.85176
O -6.32987 -2.64065 -7.19957
O -5.4981 -2.0799 -8.32301
H -4.40361 -3.7671 -12.1774
O -5.38352 -3.74354 -12.1079
O -4.31248 -3.82282 -13.1527
H 0.773464 -2.83914 -14.3073
O 1.17826 -1.94737 -14.2845
O 1.32351 -3.26365 -14.9942
H 0.271257 -2.37194 -2.85616
O -0.134375 -3.19069 -2.50589
O 1.03805 -2.29711 -2.2526
H 1.33464 -2.87062 -11.5958
O 0.92375 -2.74319 -12.4717
O 2.05549 -3.47236 -11.8753
H -7.4285 -2.00254 -5.93804
O -7.76483 -1.48392 -5.17392
O -7.36939 -2.89393 -5.53246
H -3.84617 -4.23778 -19.2711
O -4.72262 -3.94677 -18.9687
O -3.40941 -3.36941 -19.391
H -9.85452 -5.99245 -11.4828
O -9.01482 -6.06257 -10.9793
O -9.58349 -6.42226 -12.3226
H -7.61628 -6.2757 -15.8997
O -6.64913 -6.28153 -16.0573
O -7.73297 -5.45382 -15.3793
H 3.44575 -1.74825 -6.5026
O 3.29928 -1.94969 -7.44805
O 2.51316 -1.7554 -6.20111
H -1.02844 -5.68985 -12.022
O -1.82207 -5.74067 -11.4536
O -0.330003 -5.9322 -11.3775
H -7.12807 -3.83868 -12.0116
O -7.62111 -3.9687 -12.8525
O -7.32695 -4.67103 -11.5352
H -4.10044 -3.92473 -14.9344
O -3.13409 -4.01869 -14.7728
O -4.1151 -3.22937 -15.622
H 0.783576 -4.52383 -8.60655
O 0.824852 -4.783 -7.65942
O 0.778114 -5.39654 -9.05483
H -4.40776 -2.00587 -16.8812
O -5.1826 -2.39561 -17.3462
O -3.78467 -1.93735 -17.6424
H 5.82932 9.46966 -1.53492
O 5.97238 9.60934 -2.49743
O 6.73014 9.62409 -1.20504
H -6.40685 2.94128 -2.59405
O -6.01006 2.55293 -1.79424
O -7.25505 3.26222 -2.2332
H -0.739032 -2.53002 -9.77344
O -0.090723 -2.53072 -10.5075
O -0.396822 -3.30504 -9.27889
H -4.73978 -7.7516 -12.2557
O -5.61021 -8.14643 -12.4683
O -4.12248 -8.42391 -12.599
H -3.64245 -3.663 -6.15543
O -4.35127 -3.47006 -6.7987
O -3.18929 -2.79895 -6.1609
H -0.464931 0.654758 -14.9478
O -1.19571 0.329529 -15.5191
O -0.994863 1.13645 -14.2774
H 6.12532 2.15102 -8.13582
O 5.84557 3.08793 -8.0365
O 5.78971 1.95073 -9.03495
H 1.76126 -5.12207 -18.7361
O 0.825217 -5.37105 -18.8255
O 1.81201 -4.78855 -17.8233
H 0.0266563 2.79852 -3.55699
O 0.2043 2.21177 -2.79317
O -0.954109 2.78678 -3.59569
H 2.47874 -3.98074 -16.199
O 3.38696 -4.19456 -15.8887
O 2.65942 -3.08019 -16.5546
H -5.6963 2.56067 -10.9493
O -5.25874 1.76169 -11.3159
O -6.62865 2.26623 -10.9594
H 1.29382 1.95663 -16.5712
O 0.762151 2.77472 -16.4563
O 0.703051 1.34832 -16.0809
H -8.44765 -0.418321 -3.88218
O -8.50339 -0.0250849 -2.98799
O -9.33696 -0.204935 -4.2352
H -1.76602 -0.569417 -2.13663
O -2.48842 -0.857866 -2.73673
O -1.01495 -1.08108 -2.49958
H 2.01423 4.71586 -3.6465
O 1.2653 4.08585 -3.73205
O 1.91536 4.92469 -2.69076
H 7.35086 -3.41005 -16.2415
O 7.20579 -3.67075 -17.1761
O 7.94317 -2.64425 -16.3892
H 8.82015 3.992 -2.31646
O 8.05868 3.71472 -1.76432
O 8.60997 3.58576 -3.18782
H 6.95107 6.25753 -16.4474
O 6.58137 5.5306 -15.9052
O 6.59371 6.05186 -17.3265
H 5.27947 1.29848 -10.7315
O 4.78747 1.21575 -11.5771
O 5.20563 0.371471 -10.4209
H -3.37604 3.91548 -11.7328
O -3.62167 4.70776 -12.2567
O -4.25557 3.5384 -11.5276
H -8.5606 -2.51457 -16.7007
O -8.10637 -1.64977 -16.5815
O -9.4711 -2.21004 -16.8985
H -2.43366 1.88718 -13.3565
O -2.47872 2.6666 -12.7645
O -3.06541 1.29648 -12.8956
H -1.24704 7.5555 -6.26255
O -1.74595 8.32732 -5.91891
O -1.26414 6.99799 -5.45727
H -4.25069 6.1158 -13.1914
O -5.22295 6.15506 -13.3192
O -4.09823 6.95497 -12.7056
H 0.962226 2.78659 -6.17829
O 0.475142 2.78456 -5.32937
O 1.79078 2.36415 -5.88165
H 5.10612 2.07532 -17.7896
O 5.93013 1.63729 -17.4825
O 4.68997 2.26722 -16.9266
H 4.20055 6.37129 -3.8643
O 3.37665 5.84577 -3.80062
O 3.86935 7.21254 -4.25278
H 6.20764 8.53721 -18.7701
O 6.89999 9.0557 -19.2369
O 6.06467 9.1082 -17.9915
H -7.02377 -4.48053 -4.79791
O -7.68749 -4.48465 -4.07503
O -6.20523 -4.66599 -4.31141
H 7.02961 0.641784 -16.4132
O 6.44835 0.046444 -15.8935
O 7.75356 0.782114 -15.7731
H -8.38086 8.10591 -6.86289
O -7.88825 7.25725 -6.84812
O -8.13334 8.49808 -5.99846
H -3.78797 2.58487 -15.6439
O -3.35947 2.36984 -14.7882
O -3.56751 3.5406 -15.6876
H -7.27381 -0.123367 -16.4276
O -7.78306 0.689101 -16.2489
O -6.58535 0.254439 -17.0119
H 0.980098 -4.89828 -5.8785
O 1.72765 -5.03739 -5.25959
O 0.364552 -5.6062 -5.56942
H 1.68913 -6.05976 -14.3726
O 1.78706 -5.4823 -15.1503
O 2.04511 -5.46821 -13.6754
H -0.576985 3.91964 -16.4717
O -1.39897 4.15411 -15.9946
O -0.125133 4.78416 -16.4614
H -1.4889 -4.34095 -14.377
O -0.72969 -3.71643 -14.4031
O -1.31717 -4.77095 -13.5101
H 0.822117 -2.15718 -5.66561
O 0.570639 -2.11321 -4.7202
O 0.790002 -3.13021 -5.80436
H -0.731124 -7.50868 -14.0776
O -0.914254 -6.91151 -13.3242
O 0.182197 -7.22523 -14.279
H -2.84501 5.14056 -15.3885
O -2.6399 5.94743 -15.9051
O -3.28495 5.52614 -14.5997
H -4.90675 -6.01034 -16.566
O -4.75093 -5.27144 -15.9415
O -3.99284 -6.35093 -16.6196
H 5.67557 -5.39651 -3.67985
O 4.72614 -5.44555 -3.91721
O 6.087 -5.19372 -4.5434
H 4.95837 -1.36642 -10.0855
O 4.09941 -1.67957 -9.73244
O 5.56957 -1.99215 -9.64175
H -5.48378 1.68226 -17.596
O -4.8814 2.0719 -16.9242
O -4.84728 1.50169 -18.3167
H -6.37989 -3.36063 -18.2517
O -7.21002 -3.1017 -17.7998
O -6.62441 -4.24184 -18.5935
H 6.74472 6.90771 -8.3962
O 6.45887 7.81577 -8.6353
O 7.58596 7.10226 -7.92853
H -7.09484 -8.84406 -9.91991
O -7.02028 -8.90052 -10.8977
O -7.62594 -9.6517 -9.75011
H -9.4447 4.75702 -13.2671
O -9.86421 4.98 -12.4045
O -10.0733 5.1586 -13.8799
H -8.76824 8.7222 -1.84623
O -8.23794 9.05357 -1.09901
O -8.56387 7.7606 -1.77543
H -5.07089 5.78897 -1.33059
O -4.36171 5.32666 -0.839995
O -4.78102 5.59298 -2.24962
H -0.924087 2.79498 -18.979
O -0.763458 3.07717 -18.0547
O -0.034939 2.48973 -19.2541
H 1.65301 5.10721 -0.931488
O 1.71633 4.28802 -0.392523
O 2.34863 5.63646 -0.485122
H 3.84792 4.13047 -19.1381
O 4.36943 3.40163 -18.7384
O 4.56007 4.80572 -19.2066
H -8.85849 3.54052 -1.37456
O -8.85197 2.55967 -1.35817
O -9.73569 3.71314 -1.79253
H -3.04553 1.05701 -18.9496
O -2.72888 0.780264 -18.0678
O -2.36741 1.72676 -19.1819
H -3.09422 1.78593 -1.45496
O -3.01841 2.1307 -2.37141
O -2.55454 0.971868 -1.53855
H 1.83095 2.17189 -19.248
O 1.78303 2.04064 -18.2782
O 2.48719 2.89035 -19.3304
H 3.27277 2.31656 -4.63161
O 4.2109 2.31775 -4.92564
O 3.15923 3.22176 -4.29272
H -8.27154 0.783219 -1.30024
O -7.34556 0.815869 -0.996301
O -8.69279 0.266601 -0.578164
H -2.71567 0.16205 -16.374
O -3.23937 0.91964 -16.0432
O -3.36796 -0.562498 -16.3667
H -3.7695 -1.33123 -3.83187
O -4.52875 -0.70275 -3.78675
O -3.50138 -1.1965 -4.76652
H -2.74468 -1.74506 -19.0419
O -2.7765 -0.812761 -19.3325
O -1.77429 -1.9119 -18.9942
H 1.02952 1.15989 -1.38233
O 1.81695 0.789334 -1.82566
O 0.824186 0.461772 -0.732726
H -3.33763 -3.81317 -2.69296
O -3.65199 -4.45853 -3.35669
O -3.49268 -2.96009 -3.15815
H -4.32395 -5.682 -4.52499
O -3.94166 -5.02603 -5.15979
O -4.85782 -6.21773 -5.14217
H -2.96349 -0.977624 -6.42272
O -2.06291 -0.878083 -6.79779
O -3.39967 -0.213724 -6.85161
H 2.26928 -2.48395 -0.903627
O 2.2843 -3.4651 -0.954185
O 3.18469 -2.27438 -0.64675
H 3.4066 0.378364 -2.70079
O 3.15737 1.02457 -3.4001
O 4.38541 0.447777 -2.78025
H -4.27546 -3.96237 -0.143921
O -5.24447 -4.03948 -0.228486
O -4.00024 -3.79926 -1.07294
H -2.89418 -7.96975 -3.75559
O -3.4336 -7.1563 -3.81345
O -3.06566 -8.27856 -2.84467
H -0.917257 -4.60738 -1.54431
O -1.27754 -5.10301 -0.781397
O -1.753 -4.35336 -1.9878
H 1.82832 -5.16036 -1.4124
O 0.84895 -5.11599 -1.43953
O 1.97161 -5.97455 -0.880674
H 2.28305 -7.42369 0.157635
O 2.59698 -8.28399 -0.19268
O 1.68724 -7.73536 0.874021
H -7.0046 -4.60709 -0.0463586
O -7.11688 -5.35003 -0.673269
O -6.64073 -5.11677 0.713151
H -1.87674 -8.64336 0.871225
O -2.29661 -8.98862 0.0609116
O -1.98668 -7.68267 0.726049
H -2.01819 7.14224 -17.1368
O -1.86067 6.57445 -17.9306
O -2.50159 7.88248 -17.5182
H -7.81775 2.58728 -16.3107
O -6.97964 2.43814 -16.797
O -8.16113 3.37042 -16.755
H 9.62003 5.75715 -10.9951
O 9.95969 5.60232 -10.0851
O 9.79881 6.7143 -11.1216
H 9.13315 7.4407 -7.09082
O 8.8349 7.44466 -6.15356
O 9.99002 7.90847 -7.00977
H 8.17617 7.27392 -4.5429
O 7.63117 6.47044 -4.72011
O 8.42635 7.10889 -3.61134
H 6.97911 3.64138 -0.277142
O 6.05713 3.71329 0.0559764
O 7.42645 4.28055 0.318909
H 9.22146 0.283907 -14.673
O 9.86947 0.900518 -14.2739
O 9.0736 -0.355109 -13.9422
H 8.67475 -1.75167 -12.862
O 7.72284 -1.87588 -12.6541
O 9.0779 -1.76207 -11.9679
H 9.65877 2.94893 -7.27924
O 9.62324 2.3518 -8.04663
O 9.81791 3.81396 -7.71519
H 6.44102 5.25368 -4.99035
O 5.62293 5.58549 -4.56841
O 6.10285 4.93618 -5.84895
H 9.09954 -1.34355 -16.8492
O 8.51148 -0.757715 -17.3514
O 9.24534 -0.782147 -16.0551
H 7.0892 -3.93014 -18.9211
O 7.10283 -3.36746 -19.7036
O 6.16342 -4.27701 -18.9682
H 6.02012 -2.35633 -12.4452
O 5.8425 -3.26251 -12.1258
O 5.57537 -1.84284 -11.7386
H -10.0102 0.772226 -9.06958
O -9.54881 1.15353 -9.84702
O -9.22512 0.492082 -8.54328
H 6.09519 0.51046 -3.06906
O 6.67054 -0.256627 -3.27463
O 6.13898 1.02901 -3.9016
H 7.57957 -1.82449 -3.26007
O 6.9209 -2.20923 -2.64799
O 8.20233 -2.58334 -3.29981
H 4.59552 -4.98493 -18.9279
O 4.80146 -5.83555 -18.4994
O 3.62495 -5.03939 -19.0368
H 4.97539 -4.34656 -15.0766
O 5.39205 -5.22259 -14.955
O 5.73134 -3.84652 -15.4512
H 6.58497 -3.28987 -9.01902
O 7.49408 -3.63687 -9.14737
O 6.59938 -3.02361 -8.07751
H 6.31001 -1.97613 -6.58144
O 5.36684 -1.72358 -6.51975
O 6.74565 -1.134 -6.82897
H -8.60693 -4.48207 -2.53871
O -8.37022 -3.99816 -1.73268
O -8.28962 -5.38144 -2.30619
H 8.7271 -7.95255 -0.306369
O 8.6207 -8.86592 -0.630956
O 8.48204 -7.43427 -1.10458
H 6.08563 -6.85247 -14.638
O 6.65007 -6.75503 -13.8378
O 5.30322 -7.30235 -14.247
H -7.3922 -6.1315 -10.3669
O -7.32178 -7.09816 -10.2157
O -6.71519 -5.83123 -9.72633
H 9.98761 -1.7318 -10.4174
O -9.23867 -1.65616 -10.5988
O 9.84823 -0.926979 -9.88487
H 7.88818 -6.58683 -2.566
O 7.00069 -6.20844 -2.74068
O 7.96007 -7.16495 -3.35684
H 8.55567 -6.05768 -17.9181
O 9.47552 -6.14679 -18.2441
O 8.24439 -5.25917 -18.3927
H -9.19372 -7.33191 -13.8668
O -10.0108 -7.52758 -14.3728
O -8.62147 -7.02482 -14.5997
H 5.42347 7.51709 -12.0687
O 6.18935 8.09971 -12.2616
O 5.87452 6.76587 -11.6276
H -7.66563 -7.94063 -4.34787
O -8.54914 -7.70321 -4.72283
O -7.09381 -7.62021 -5.07058
H -7.81039 6.19832 -1.39803
O -8.17924 5.29831 -1.39219
O -6.84969 6.01396 -1.34791
H -4.36389 6.31881 -6.30549
O -4.76695 7.17752 -6.05468
O -3.91394 6.58309 -7.13232
H -0.985662 8.90179 -1.99521
O -0.887188 8.082 -1.47751
O -0.0477302 9.12885 -2.17903
H 1.59918 9.41692 -2.79536
O 2.29375 9.17424 -3.44141
O 2.14712 9.69513 -2.02807
H 7.69715 -8.08822 -4.82427
O 7.14731 -7.90795 -5.61363
O 7.33946 -8.95565 -4.53952
H -7.64899 9.26515 -4.41816
O -7.70329 -9.73929 -4.33357
O -8.0758 8.99667 -3.57827
H -5.21392 8.87329 -5.69939
O -6.02923 8.95865 -5.15892
O -5.39577 9.52533 -6.41135
H 1.20329 8.67338 -6.7563
O 0.377303 8.14541 -6.73989
O 0.875181 9.48364 -6.31296
H 3.28151 8.69845 -4.9671
O 2.57385 8.64034 -5.64399
O 3.95701 9.19756 -5.47503
H 5.24959 9.93283 -6.52088
O 5.49339 -9.11097 -6.68253
O 5.43857 9.58325 -7.41683
H -8.24511 8.67789 -9.5704
O -8.32511 8.50131 -8.60761
O -7.54883 8.03636 -9.83368
H -6.25708 7.01468 -10.5382
O -5.87631 6.26901 -10.026
O -5.45704 7.4777 -10.8561
H -2.81636 7.06698 -8.44296
O -2.62182 6.17311 -8.79659
O -2.08073 7.18048 -7.80184
H 0.638832 -6.88843 -10.1425
O -0.0390176 -7.58938 -10.0773
O 1.43735 -7.40418 -10.387
H 5.12266 -7.16697 -9.76307
O 5.72626 -7.74643 -10.2768
O 4.25282 -7.51808 -10.0473
H 6.81117 -8.72778 -11.2483
O 7.08443 -9.50924 -11.7783
O 7.23551 -8.00797 -11.7512
H -7.239 -8.8841 -12.6502
O -7.9405 -8.32512 -13.0463
O -7.48487 -9.75685 -13.0315
H -8.89776 -6.67655 -18.307
O -8.09284 -6.52106 -18.8398
O -8.51633 -6.54992 -17.4107
H -2.51487 -9.36878 -12.7697
O -1.90358 -8.9579 -13.4103
O -2.12011 -9.06255 -11.9283
H 2.92659 -8.34098 -11.0041
O 3.20675 -8.25662 -11.9386
O 3.07233 -9.30237 -10.8531
H 3.667 -7.87633 -13.6967
O 2.93129 -7.25865 -13.8835
O 3.57404 -8.47651 -14.4689
H -9.72101 8.86977 -15.88
O 9.51333 8.74467 -15.6945
O -9.76686 9.44486 -16.6651
H -6.2489 -6.02032 -19.0468
O -5.52203 -5.97622 -19.684
O -5.75425 -6.14274 -18.2082
H -2.07504 -6.29603 -16.2466
O -1.70879 -7.00312 -15.6816
O -1.87338 -5.52784 -15.6726
H -1.17052 5.5556 -19.11
O -0.23603 5.63278 -19.3752
O -1.32364 4.60279 -19.2609
H 7.75791 8.64391 -15.3826
O 7.48269 7.7784 -15.7689
O 7.13854 9.2475 -15.846
H -7.19823 -6.7237 -1.87656
O -7.35448 -7.25539 -2.68764
O -6.63595 -7.34246 -1.36152
H -5.57718 -8.40376 -0.388371
O -4.74279 -8.78276 -0.72602
O -6.05935 -9.207 -0.111697
H 8.22198 -9.91188 -19.7883
O 8.83078 -9.6876 -19.0534
O 8.59778 -9.41835 -20.52
H 5.55951 6.75058 -1.51194
O 5.11187 6.56458 -2.36562
O 5.56766 7.73151 -1.50892
H 8.86932 -4.22657 -14.1022
O 8.83678 -3.35503 -13.6548
O 8.31368 -4.04308 -14.8891
H 8.57967 2.63663 -4.72887
O 8.95515 2.90618 -5.59327
O 8.90601 1.71548 -4.67265
H -9.79383 5.37261 -8.38764
O -8.88989 5.46385 -8.01375
O 9.91648 6.08363 -7.90765
H 7.92359 -6.44479 -12.6723
O 8.65212 -6.4216 -12.0192
O 8.2115 -5.67559 -13.2099
H 9.11293 -0.0763364 -4.82848
O 8.58901 -0.732201 -4.32453
O 8.70276 -0.128838 -5.71616
H 7.66355 9.03482 -12.6392
O 7.77406 8.91566 -13.6095
O 8.55569 8.79185 -12.3086
H 6.89159 5.57008 -10.7792
O 6.81526 5.94653 -9.87596
O 7.86587 5.5645 -10.8942
H 8.98871 -4.15577 -3.41091
O 9.94513 -4.20267 -3.19518
O 8.68875 -5.00519 -3.02562
H 9.10252 -4.25694 -9.61892
O 9.495 -4.85591 -10.2882
O 9.48792 -3.3973 -9.89091
H 8.84353 -7.55985 -15.639
O 7.95652 -7.57844 -15.2472
O 8.7311 -6.89263 -16.349
H -9.98361 -7.25312 -5.57383
O 9.37432 -7.63286 -5.22252
O 9.84701 -6.80458 -6.36333
H -3.4843 9.6492 -9.23084
O -3.25327 8.76865 -8.86207
O -4.14924 9.97459 -8.59174
H 5.96835 -9.65172 -16.7018
O 5.05289 -9.57597 -16.3631
O 6.04882 -8.78041 -17.1383
H 0.0663587 -9.62343 -4.913
O 0.528507 -9.87957 -4.08826
O -0.836807 -9.96215 -4.76128
H -10.0112 8.38011 -11.6461
O -9.36851 8.57498 -12.3622
O -9.48115 8.63842 -10.8602
H -2.62338 9.53577 -4.93665
O -2.77635 -9.54435 -4.57377
O -3.54654 9.26586 -5.13036
H -3.19078 -9.56646 -1.42501
O -2.38211 9.91873 -1.69531
O -3.82162 9.65754 -1.33961
H 8.71898 9.24329 -1.02114
O 9.65259 9.27867 -1.31568
O 8.53043 8.3193 -1.30459
H 6.58169 9.47445 -4.17605
O 6.04621 9.49112 -4.99811
O 7.1741 8.71071 -4.35164
H 5.94418 9.44743 -9.15945
O 6.41434 -9.90103 -9.73567
O 5.10017 9.35445 -9.65045
H -8.16967 8.7364 -13.6541
O -8.65082 8.76573 -14.5166
O -7.68404 7.89122 -13.7244
H 9.91603 -9.05499 -17.7513
O -9.70974 -8.31432 -18.0545
O 9.5107 -8.65553 -16.9558
H -4.02211 8.45624 -11.6882
O -3.54472 9.08392 -12.268
O -3.82665 8.87271 -10.8237
H 3.62808 8.9968 -10.5657
O 4.0865 8.39815 -11.1929
O 3.2516 8.34909 -9.92581
H 3.33083 -9.17121 -16.0681
O 2.79176 -8.87843 -16.8107
O 3.01472 9.87562 -15.9637
H -5.08118 8.53409 -1.00146
O -5.06187 7.56108 -1.11802
O -5.92826 8.65326 -0.540147
H 3.14618 9.98464 -0.569862
O 2.93425 9.39259 0.182481
O 4.09895 9.81351 -0.713527
H 1.75632 0.835923 5.0206
O 1.2902 1.65363 5.29018
O 1.06753 0.411037 4.47541
H -0.0781334 0.949491 11.0847
O 0.448602 0.378631 11.6758
O -0.638741 0.276944 10.6521
H -7.33394 -0.0624628 12.0866
O -7.28032 -0.948818 12.4961
O -6.40524 0.0369931 11.7789
H 2.96816 2.79627 9.4906
O 3.05634 1.91611 9.90314
O 3.61059 3.3083 10.0066
H -6.04929 3.5184 9.59907
O -6.0394 2.65183 9.13627
O -5.092 3.72935 9.59937
H -8.99435 -2.01889 6.28657
O -9.02305 -1.21349 6.83062
O -9.92007 -2.10901 5.98166
H -8.27021 -0.061519 8.30677
O -7.9372 -0.901011 8.6931
O -7.44148 0.448536 8.21651
H 1.80037 7.6663 10.3746
O 1.92769 6.77401 10.7547
O 1.31927 8.10663 11.0987
H -1.16466 3.1682 9.75158
O -0.689534 2.40488 10.1379
O -0.457938 3.55047 9.18773
H 7.52054 -6.1982 12.6246
O 7.0311 -5.66453 13.2855
O 7.79089 -5.52007 11.9672
H 1.89355 -2.58148 10.4767
O 1.66257 -3.45943 10.8514
O 1.33096 -2.56606 9.67391
H -3.76978 -4.59737 8.31399
O -4.02739 -3.92183 7.66082
O -4.12222 -5.41905 7.88978
H 2.39071 -4.41629 7.51979
O 2.89782 -4.64969 8.33775
O 3.02671 -3.84434 7.07331
H -7.51336 -2.46366 9.37545
O -6.88285 -2.94278 9.94335
O -7.41662 -2.98007 8.54906
H -3.86054 -0.743902 8.74966
O -2.94537 -0.946016 9.03963
O -4.00157 -1.40519 8.04285
H 6.12029 -4.82756 14.6332
O 5.88745 -3.94415 14.278
O 6.78914 -4.59669 15.3089
H -5.55263 -6.10729 12.2636
O -5.65279 -5.41531 11.5783
O -6.2341 -5.82064 12.9123
H 0.305094 3.13325 5.29621
O 0.27221 3.08996 4.32114
O -0.231325 3.94426 5.44266
H -3.10288 2.13923 11.7046
O -3.46792 2.81865 12.3129
O -2.5011 2.6626 11.1439
H 3.9248 -4.98135 9.64667
O 4.12528 -5.89028 9.94781
O 4.58698 -4.46337 10.1486
H -5.48751 -4.12497 10.3898
O -5.01983 -3.50474 10.9918
O -4.80239 -4.27147 9.69731
H -4.26398 3.89232 13.5179
O -4.24262 4.80569 13.142
O -5.17082 3.86246 13.8785
H -10.0464 3.38651 3.83048
O -9.9212 3.8882 2.9998
O -9.95877 4.09626 4.50019
H 4.58792 4.30768 11.3512
O 3.72751 4.77863 11.4423
O 5.16228 5.02119 10.989
H 5.59667 -8.18328 12.5902
O 5.04568 -7.98274 11.8037
O 6.29064 -7.4991 12.4802
H -2.25216 -8.32577 10.2448
O -2.03365 -9.1903 10.6566
O -3.16039 -8.21893 10.5911
H 1.59924 6.30312 6.53268
O 1.45006 5.61635 7.21258
O 2.52945 6.55258 6.72017
H 0.946926 3.93232 8.02115
O 0.895932 3.44779 7.17698
O 1.70677 3.49795 8.47351
H 5.78359 2.55689 15.2092
O 5.48499 2.12739 14.38
O 5.72701 3.48966 14.9091
H -0.198858 -0.352003 3.44652
O -0.997465 0.194066 3.28088
O 0.084352 -0.525126 2.53488
H 1.015 -0.722374 0.761304
O 1.7559 -0.6238 1.40136
O 1.39013 -1.43741 0.19999
H 6.97842 0.0808592 13.1988
O 6.21581 0.665547 13.0012
O 7.67966 0.598076 12.7488
H 4.37766 0.57871 4.51295
O 3.43417 0.732405 4.76724
O 4.68972 0.10621 5.31065
H 3.31717 -1.17427 14.693
O 2.8894 -0.640351 15.3894
O 2.71847 -1.00924 13.9394
H -5.21399 0.1413 5.59453
O -5.80854 -0.150912 4.86778
O -4.91889 -0.724885 5.93424
H -3.47951 4.44175 9.00241
O -3.57496 4.28248 8.04199
O -2.64868 3.95261 9.20338
H -4.74749 0.016837 11.2266
O -4.44749 -0.217265 10.3234
O -4.19476 0.81055 11.4041
H 2.16956 5.42483 11.9381
O 2.26214 5.88964 12.7943
O 1.59267 4.66932 12.1796
H -2.81518 3.9305 15.826
O -3.43701 4.49047 16.3428
O -3.3189 3.85382 14.9825
H 3.24334 -0.768769 2.35205
O 3.73263 -0.210305 2.99294
O 3.79372 -0.684365 1.54329
H -6.03413 -0.230921 15.1168
O -6.2213 0.528006 15.702
O -6.9347 -0.582144 14.9923
H -0.859792 5.58206 5.56463
O -0.0121768 5.86403 5.9639
O -1.17718 6.44106 5.23583
H -5.05341 5.19821 16.8253
O -5.59246 4.81345 16.1057
O -5.68349 5.14396 17.5601
H 5.79502 -7.69879 2.619
O 5.57084 -7.56108 3.5611
O 6.62296 -7.18451 2.52141
H -6.74338 -0.652652 3.46055
O -7.46261 -0.00118468 3.31898
O -7.14821 -1.46511 3.09328
H 8.2476 5.4857 1.39746
O 8.26754 6.46355 1.46892
O 9.19991 5.2646 1.39773
H -8.13318 2.28372 13.3151
O -8.90809 2.02147 13.8459
O -7.83765 1.41409 12.9616
H -7.98288 4.32638 11.4768
O -7.29053 4.00545 10.8612
O -8.00919 3.58835 12.1238
H 8.3529 6.29184 17.1623
O 8.35881 5.31554 17.1857
O 7.39286 6.47005 17.2751
H -0.835214 5.57365 14.793
O -0.374255 5.88901 15.594
O -1.50634 4.99162 15.1935
H -1.30598 8.23575 4.91817
O -1.79764 8.66634 4.18982
O -1.89984 8.37782 5.68071
H -7.52899 6.99751 6.15606
O -7.33254 6.64676 7.0485
O -8.29108 6.44321 5.89399
H 2.24889 8.18169 1.45505
O 2.8399 7.42521 1.24047
O 2.14392 8.08746 2.42322
H 1.44105 8.10296 4.24823
O 0.485093 8.23102 4.42221
O 1.64257 7.46571 4.96093
H 4.15373 -2.40733 17.0853
O 3.93593 -2.14992 16.1703
O 3.66521 -3.25438 17.1629
H -6.64492 3.81936 14.9838
O -6.61283 3.06699 15.6237
O -7.2063 3.39754 14.2954
H -4.88435 -8.56924 11.2819
O -5.54804 -8.56615 10.5557
O -5.10744 -7.71564 11.7145
H -0.0663297 -7.35 15.0292
O 0.295811 -8.25892 14.9798
O -1.02299 -7.54683 14.943
H 2.58546 -4.67766 16.8512
O 1.83639 -5.13952 17.2901
O 2.24266 -4.69384 15.9328
H 4.32562 -0.544693 -0.148648
O 3.93714 -0.17323 -0.95918
O 5.20608 -0.114793 -0.144151
H 0.627864 -8.37912 2.15955
O 0.203743 -7.78094 2.81115
O -0.17345 -8.68212 1.6882
H -4.43883 -2.46362 12.3285
O -5.27677 -2.50526 12.8414
O -4.46293 -1.51905 12.058
H -4.66974 -2.48858 6.63107
O -5.55831 -2.91093 6.69577
O -4.32021 -2.92779 5.8194
H 0.38119 -2.16153 5.47016
O 0.0707645 -1.46796 4.85002
O 1.26878 -2.33919 5.08748
H -0.198437 -2.21772 17.1521
O -0.797121 -2.98405 17.3019
O 0.597025 -2.48891 17.6264
H 0.360159 -2.65199 8.19937
O 0.268992 -2.25328 7.30704
O 0.881642 -3.44403 7.95085
H -7.01398 -2.60931 13.3111
O -7.66959 -2.19331 13.9123
O -7.10221 -3.54523 13.5859
H -2.44417 -5.90905 0.459461
O -2.6592 -5.96354 1.41393
O -3.12665 -5.25834 0.193058
H 9.97204 -5.26551 8.55073
O -9.40872 -5.34428 9.10674
O -9.84086 -5.57267 7.70352
H -8.65939 -4.50511 3.78333
O -8.43852 -3.74048 3.21203
O -9.63535 -4.47084 3.81946
H 1.45565 -0.907375 12.5612
O 1.59288 -1.60382 11.8798
O 0.837973 -1.36944 13.1737
H -1.15889 -5.38828 7.83893
O -2.03177 -5.07457 8.15849
O -0.734347 -5.67242 8.67612
H -7.0748 -3.76663 6.96475
O -7.77267 -3.18685 6.57037
O -7.4964 -4.63643 6.89312
H -3.53065 -3.7479 4.49924
O -2.58435 -3.92489 4.68557
O -3.48321 -3.26057 3.64467
H 0.561175 -4.67866 11.6997
O -0.334952 -4.3043 11.8085
O 0.39333 -5.444 11.1056
H -3.42489 -2.55342 2.04147
O -3.76668 -3.12172 1.31852
O -2.67004 -2.12669 1.57023
H 6.25748 9.52983 17.5467
O 6.47011 9.36005 16.6028
O 7.13519 9.67899 17.921
H -6.57917 1.85363 16.8071
O -5.66779 1.82149 17.189
O -7.1428 1.82982 17.5931
H -1.40186 -1.41326 9.9557
O -0.79592 -1.85633 9.32285
O -1.48508 -2.08245 10.6581
H -4.65767 -6.90847 7.1908
O -5.50664 -7.26617 6.86083
O -4.10606 -7.71231 7.22689
H -1.77821 -3.21286 12.2607
O -2.69186 -2.8624 12.3599
O -1.32558 -2.78267 13.0183
H -2.32138 1.26892 2.722
O -3.01654 0.823188 2.20012
O -2.87926 1.70939 3.3996
H 4.98881 1.86563 12.6327
O 4.91777 2.73485 12.1843
O 4.39998 1.33559 12.0517
H 2.4414 -5.48276 3.89374
O 2.98116 -5.58841 3.08974
O 2.41195 -4.50828 3.96801
H -0.856436 2.24517 14.7816
O -0.377829 2.01158 15.6041
O -1.54556 2.8335 15.1471
H 2.73295 -2.74376 4.19091
O 3.66942 -2.82986 4.47405
O 2.8264 -2.06362 3.48935
H -5.75788 1.17029 8.10219
O -5.6335 1.01513 7.14282
O -5.05929 0.573694 8.44355
H -0.113193 2.91637 2.50565
O -0.525744 3.80855 2.41448
O -0.908025 2.34252 2.51439
H -8.68225 -1.17651 14.9667
O -8.59163 -1.47994 15.903
O -9.65023 -1.04123 14.9381
H -1.94729 -0.0910004 17.2448
O -2.5835 -0.517443 16.6314
O -1.29987 -0.822544 17.3242
H 2.74813 4.0642 14.6167
O 2.15604 3.64455 13.9585
O 2.25275 3.92088 15.4416
H 7.22829 -2.57608 2.93632
O 6.94934 -3.16988 2.20802
O 7.57642 -1.81728 2.42104
H 8.06787 3.548 16.5972
O 7.17562 3.19019 16.4496
O 8.55563 3.10364 15.8788
H 6.29143 5.42073 3.39954
O 5.97838 4.4979 3.45442
O 6.95717 5.35954 2.68979
H 3.44043 0.424696 10.8913
O 2.74553 -0.0513571 11.3796
O 3.75152 -0.257419 10.2618
H -4.59423 4.28667 6.42718
O -4.4854 5.1858 6.04767
O -5.51622 4.31287 6.70631
H -9.36434 -0.463093 0.901253
O -9.11505 0.189094 1.59293
O 9.85724 -0.531587 1.06715
H -4.0775 2.43786 4.45608
O -4.11863 3.07035 5.2058
O -4.46673 1.64159 4.87572
H -1.26276 6.40603 12.237
O -0.584554 7.10286 12.2932
O -1.09098 5.95281 13.0943
H -4.76443 6.88946 5.56036
O -5.68887 7.16503 5.7235
O -4.25184 7.47879 6.15966
H 0.874529 3.08798 12.8064
O 0.184119 2.84753 13.4615
O 0.645357 2.47454 12.0842
H 4.53418 3.59916 0.955292
O 4.84229 3.23185 1.81486
O 3.62443 3.23174 0.901252
H 3.04595 6.48666 16.4934
O 2.71369 5.57943 16.6159
O 2.88987 6.63325 15.5329
H 8.06767 8.31266 1.68596
O 8.24817 8.77579 0.849379
O 7.19126 8.66896 1.93182
H -7.26371 -5.2317 14.2061
O -8.16763 -5.11304 14.5656
O -6.91712 -5.92439 14.8056
H 5.64788 2.66503 3.2548
O 5.12804 2.00169 3.76092
O 6.53924 2.26412 3.32802
H -8.70487 6.98974 12.0611
O -8.28661 6.10453 12.0558
O -8.11555 7.4999 12.6528
H -2.90812 4.34181 -0.294136
O -2.90103 3.41479 -0.607915
O -3.21832 4.22134 0.627215
H -4.29564 4.06205 2.17317
O -4.15052 3.51296 2.97226
O -4.09278 4.96055 2.51481
H -8.47974 1.36849 2.74092
O -9.05979 1.9591 3.26538
O -7.86696 2.02822 2.35142
H 1.1915 -4.9361 14.4219
O 1.19159 -4.94404 13.4425