1665
Atoms. Timestep: 100000
H 7.76975 6.35807 -11.6504
O 6.82587 6.49927 -11.7238
O 8.12513 6.67548 -12.4806
H 5.75864 -0.598699 -8.71412
O 6.30136 -0.322174 -9.45251
O 5.8775 0.0883741 -8.05835
H -2.64692 0.388364 -10.6964
O -3.37971 0.423236 -11.3112
O -2.89142 0.994409 -9.99699
H -2.07615 1.12067 -1.79083
O -1.54695 1.38171 -1.03715
O -1.46623 1.13382 -2.52843
H 10.0758 -4.03344 -20.5729
O -9.99109 -4.18959 -21.5094
O 9.13074 -4.10398 -20.4381
H 6.70212 -9.50095 -7.63339
O 6.38676 9.74791 -8.16464
O 6.77971 -9.86191 -6.75026
H 2.6899 -3.46253 -9.1152
O 2.49614 -4.39796 -9.1756
O 2.61249 -3.14288 -10.0141
H 9.90206 1.98548 -14.0002
O 9.32586 2.20793 -13.269
O -10.0655 1.06456 -13.8605
H -4.4864 -5.36599 -11.1653
O -4.2098 -4.49027 -10.8954
O -4.34429 -5.38151 -12.1117
H -5.51485 1.90304 -8.99693
O -6.26149 2.45288 -9.2345
O -5.85482 1.0089 -9.03094
H 6.0521 9.66106 -14.3495
O 6.25227 -9.98409 -13.4754
O 5.14694 9.35585 -14.2881
H -7.17745 -0.479461 -3.85209
O -6.75223 -0.126543 -3.0705
O -8.09722 -0.231915 -3.75738
H -4.43574 5.64172 -6.22536
O -4.13008 6.16396 -5.48369
O -4.75781 4.83095 -5.83145
H -7.89346 -4.48115 -19.1381
O -8.11225 -4.48746 -18.2063
O -8.72326 -4.29688 -19.5782
H -5.88726 -6.32537 -19.1366
O -6.59946 -5.75291 -19.4217
O -5.25197 -5.73473 -18.7319
H -7.63125 -0.24791 -6.76935
O -7.42931 -0.487317 -5.86484
O -6.77741 -0.185979 -7.19755
H -10.035 0.125797 -20.4227
O -9.29683 0.409531 -19.8834
O -9.6307 -0.241961 -21.2086
H 2.31863 -6.13043 -16.411
O 2.79606 -6.93907 -16.2256
O 2.22735 -6.11874 -17.3638
H -2.27355 -4.77593 5.28687
O -2.2406 -5.45885 5.95677
O -3.18776 -4.49243 5.27793
H -0.185333 8.18226 -19.291
O 0.661261 7.74624 -19.1941
O -0.680152 7.61653 -19.8838
H 9.07938 1.58075 4.43562
O 10.032 1.48762 4.43218
O 8.79099 1.06937 5.19163
H -9.24859 4.46363 -10.2692
O -8.42539 4.11626 -10.6125
O -9.35547 5.30683 -10.7094
H -2.04325 6.51386 -9.91061
O -1.34562 7.12538 -9.67487
O -2.10746 6.57879 -10.8634
H 9.46476 4.00596 -5.81712
O 9.60681 4.71181 -6.44786
O -10.0288 3.37412 -6.0036
H 0.873178 -6.00117 3.09559
O 0.629036 -6.63596 2.42204
O 1.32561 -5.30614 2.61761
H 5.33018 8.57377 -8.84058
O 5.40161 8.08591 -9.66102
O 4.57676 8.18582 -8.3955
H -8.42944 -9.59814 1.27955
O -8.92602 9.97803 1.99127
O -8.42509 -8.66431 1.48968
H -9.34651 7.13334 -19.1236
O -10.0755 6.776 -18.6165
O -9.03976 7.88016 -18.6094
H 4.59609 -2.73691 2.11452
O 5.43441 -2.38288 2.41136
O 4.10319 -1.97125 1.81951
H -6.09391 5.7988 -15.8258
O -6.01557 6.66713 -16.2208
O -6.02335 5.95627 -14.8842
H 0.0117686 -4.46571 -19.3086
O -0.719547 -5.05791 -19.4838
O 0.784747 -5.03023 -19.3158
H 9.76114 -5.53356 0.0649163
O 9.22126 -5.96952 0.724224
O 9.18662 -4.86834 -0.314092
H -6.38124 -0.793719 -9.50888
O -6.11049 -1.67778 -9.75661
O -7.17231 -0.632085 -10.023
H 0.387209 -2.83208 -7.59876
O -0.218938 -2.53594 -8.27781
O 1.22318 -2.9379 -8.05284
H 1.54567 6.16611 -19.1435
O 2.31546 5.59845 -19.1811
O 0.803017 5.57015 -19.2411
H -8.98673 -2.45996 -7.81084
O -8.84795 -1.52584 -7.65467
O -9.6192 -2.72364 -7.14249
H -5.6753 5.76799 -12.8149
O -5.11211 5.0514 -13.1074
O -6.17821 5.39731 -12.0897
H -7.83099 -6.17029 -0.418433
O -8.70501 -5.89546 -0.141348
O -7.47253 -5.40794 -0.872925
H 0.880162 -8.81543 10.551
O 0.912024 -7.86996 10.697
O 1.78816 -9.06178 10.3747
H 3.99266 -0.275048 -19.2473
O 3.2242 -0.588985 -19.7239
O 3.83719 0.662391 -19.1321
H 5.60494 8.16205 -11.6491
O 5.03844 8.04314 -12.4114
O 5.95299 9.04859 -11.7446
H 4.02376 -8.00463 -19.1596
O 4.89891 -7.61752 -19.1816
O 4.04081 -8.67543 -19.8422
H 4.18117 6.18895 -16.5268
O 3.6153 6.92939 -16.7454
O 3.57602 5.48617 -16.2899
H -9.06567 -4.17601 -4.63522
O -8.23549 -4.20996 -5.1105
O -8.83547 -3.82527 -3.77485
H 0.880595 -8.29155 -12.2799
O 0.566273 -8.55958 -11.4164
O 0.270979 -7.6069 -12.5553
H 8.87904 6.31959 -17.6205
O 8.59313 5.43435 -17.846
O 8.0829 6.76075 -17.3242
H 4.42314 5.65613 -10.6229
O 4.15788 6.57583 -10.6263
O 5.20633 5.63428 -10.0731
H -0.853113 -9.63847 -0.662668
O -1.75589 -9.93522 -0.547968
O -0.322892 9.55726 -0.521235
H -4.57125 -5.83251 1.39331
O -3.64154 -5.7997 1.16795
O -4.90676 -6.59251 0.917848
H 1.52554 -2.4791 7.80882
O 0.852597 -3.12927 8.01044
O 1.05349 -1.64699 7.77724
H 1.74917 -4.81019 -1.90948
O 2.17153 -5.60882 -1.59319
O 1.68459 -4.2503 -1.13581
H -2.17505 -6.49241 -19.5011
O -2.45235 -6.59089 -18.5903
O -1.60974 -7.24772 -19.6629
H -9.8943 9.08507 -15.0393
O 9.9104 8.22721 -14.8565
O -9.18612 9.17234 -14.4012
H -1.63234 9.26402 3.57301
O -1.83295 9.13804 4.50043
O -0.681504 9.37074 3.54549
H -5.41881 9.9109 -13.0163
O -5.24625 -9.85561 -13.9333
O -4.58973 9.55965 -12.6916
H 5.93377 -2.03794 6.74795
O 5.2202 -1.75969 7.32209
O 6.00677 -2.98087 6.89554
H -7.75695 7.87963 -16.7515
O -8.20675 8.38535 -16.0746
O -7.58177 8.51288 -17.4476
H -7.63694 3.21531 8.0428
O -6.7935 3.65234 7.92516
O -8.1174 3.39968 7.2357
H 2.5052 3.39726 1.12099
O 1.8095 3.16127 0.507364
O 3.06603 3.99688 0.628903
H 5.70677 2.27777 -19.2986
O 6.58088 2.60907 -19.5045
O 5.82575 1.33341 -19.1973
H -4.38177 -7.54011 -6.77824
O -4.17799 -7.51444 -5.84334
O -3.54757 -7.35781 -7.2108
H -2.63618 -6.78712 -16.761
O -2.22219 -5.94303 -16.5811
O -2.05291 -7.43096 -16.3591
H -1.09812 -4.72042 -4.0619
O -1.80024 -4.75931 -4.71132
O -1.3662 -4.02618 -3.45991
H 1.77774 -2.06915 -19.3904
O 1.21605 -2.79932 -19.6504
O 1.17462 -1.33777 -19.2579
H 8.04607 -6.74773 -13.3022
O 8.56004 -7.4751 -13.6529
O 8.13806 -6.82478 -12.3525
H -9.4348 -4.72633 -9.61122
O -9.27064 -4.04123 -8.96321
O -8.74129 -5.36898 -9.46196
H 7.71298 8.89664 -18.6367
O 7.34132 8.71996 -17.7725
O 8.07318 9.78073 -18.5668
H 7.54772 -4.44494 -19.2813
O 8.12852 -4.32964 -18.5293
O 7.06379 -3.62113 -19.3394
H 6.18372 2.83354 -16.4506
O 6.12738 2.76743 -17.4038
O 6.40699 1.9488 -16.1614
H 0.335406 -9.43216 -9.58242
O 1.27637 -9.26121 -9.62246
O 0.255415 9.7754 -9.02281
H -5.17896 7.78223 -8.01354
O -6.04752 8.14022 -7.83003
O -5.13509 6.98015 -7.49298
H 4.55448 -0.129268 -16.6963
O 4.23023 -0.0411604 -17.5926
O 4.23674 -0.985335 -16.4092
H 0.977019 5.29365 -9.78029
O 0.213365 4.80514 -10.0876
O 1.6584 4.63025 -9.67143
H -3.51111 -0.487263 -14.6187
O -3.36351 -0.786816 -15.5157
O -2.66033 -0.58307 -14.1906
H 3.76499 -9.98375 -5.89525
O 2.9327 -9.70398 -6.27637
O 4.30152 -9.19116 -5.88234
H -3.70503 -7.18496 -4.29307
O -3.18333 -7.57007 -3.58898
O -3.754 -6.25443 -4.07407
H 5.6573 -9.43917 4.783
O 6.24448 -9.48376 4.02837
O 6.21865 -9.62683 5.53527
H -7.76928 7.92924 -3.18645
O -6.99998 7.90717 -2.61731
O -7.72377 8.78217 -3.61851
H -7.35364 9.67435 -18.7518
O -6.44188 9.947 -18.8547
O -7.80946 -9.90287 -19.4908
H 0.494584 7.94578 -0.216006
O 0.540521 7.43198 0.5903
O 1.40815 8.12367 -0.439597
H 3.61977 3.95197 -12.867
O 3.87735 4.44978 -12.0911
O 4.42652 3.52707 -13.1583
H 8.12675 -9.45269 -16.2649
O 8.8745 -9.78724 -15.7697
O 7.36376 -9.69417 -15.7397
H 2.82659 4.33843 -2.13877
O 2.19094 5.03314 -1.96682
O 2.47583 3.87509 -2.89937
H -6.60451 6.17571 -19.3455
O -5.87884 6.79592 -19.4161
O -7.38833 6.72475 -19.3251
H -1.55477 -8.81148 -6.31536
O -2.1485 -9.38065 -6.80501
O -1.70922 -9.03614 -5.3978
H 4.15143 9.84859 -20.8429
O 4.38031 9.04548 -20.3751
O 4.06642 9.57788 -21.7571
H -8.26103 9.73231 -12.7261
O -8.36984 -9.84485 -11.8647
O -7.33014 9.51447 -12.7733
H 10.0245 -0.0452198 9.02233
O 9.79056 -0.785089 9.58277
O 9.56855 0.702328 9.40899
H -0.180605 -5.82138 -10.2151
O 0.690455 -5.9816 -9.85201
O -0.0197477 -5.58039 -11.1274
H 9.53522 3.36104 -16.8485
O -9.8657 2.82209 -16.9277
O 9.1011 3.03725 -16.0592
H -3.52282 1.144 -4.99532
O -3.87516 0.30405 -4.70107
O -4.0996 1.79782 -4.60028
H 0.858348 -5.37781 -5.8195
O 0.998781 -4.49816 -6.16982
O 0.246137 -5.25246 -5.09443
H 0.94651 1.91706 -16.0539
O 0.603198 1.27882 -15.4285
O 0.178033 2.21123 -16.5429
H 5.73674 -5.42269 -12.649
O 6.5541 -5.79753 -12.9771
O 5.89086 -4.47799 -12.6442
H 1.19052 9.56326 -14.2587
O 1.25003 -9.55602 -13.8441
O 0.374175 9.19177 -13.9243
H -4.58589 8.2988 -16.4527
O -5.01176 9.14293 -16.6021
O -3.93941 8.47382 -15.7688
H -8.4989 -1.69172 -1.28785
O -9.41286 -1.73214 -1.56941
O -8.51418 -1.99244 -0.379244
H -5.00753 -8.9174 -16.0492
O -4.10244 -8.69452 -15.8316
O -5.1155 -8.62558 -16.9544
H -8.24149 2.25194 1.28118
O -8.40286 1.44233 1.76567
O -7.28838 2.33969 1.27112
H -7.6503 -0.0515806 -19.1117
O -6.97028 0.622028 -19.1036
O -7.19877 -0.851626 -18.8428
H 9.86495 0.580702 -7.92206
O 9.33 1.04575 -7.27879
O -9.45991 0.514606 -7.51359
H -6.03987 7.88813 -10.6199
O -5.47817 7.98302 -9.85065
O -5.61202 7.21394 -11.1478
H -8.79342 -3.63057 -12.0746
O -9.25019 -4.21385 -11.4684
O -9.20195 -3.79913 -12.9236
H 6.10348 6.10845 -19.4293
O 6.64447 5.31922 -19.4035
O 6.7303 6.82623 -19.5194
H -5.1032 0.18054 -12.327
O -4.86723 -0.143311 -13.1963
O -5.53419 -0.561684 -11.9032
H 7.79435 0.427252 -19.0172
O 8.27197 0.0191842 -18.295
O 8.44274 0.511876 -19.7163
H 6.84054 6.41364 1.64235
O 6.27417 5.7115 1.32226
O 6.48966 7.20767 1.23908
H 6.99542 -6.19748 -5.89512
O 6.26585 -6.03369 -6.49272
O 7.4197 -5.34529 -5.79513
H -4.2864 4.18328 -19.3319
O -5.05765 4.75014 -19.3239
O -3.74387 4.50607 -18.6124
H 4.35938 -7.90857 -15.6271
O 4.67681 -8.63082 -16.1692
O 5.14521 -7.40555 -15.4134
H 5.36103 6.31142 4.06348
O 4.98577 7.15442 4.31794
O 5.62164 6.43061 3.15019
H 2.16237 -6.54135 -9.21783
O 1.71339 -7.19713 -8.68435
O 3.06798 -6.84801 -9.26322
H -9.96762 6.31211 -7.04625
O 10.0462 6.97106 -6.37418
O 9.93944 6.72307 -7.86382
H -1.51589 6.36953 -15.297
O -0.607172 6.22633 -15.0325
O -1.47943 7.12756 -15.8804
H -8.89519 1.17463 -16.3667
O -8.01293 1.45904 -16.6054
O -8.91215 1.22168 -15.4108
H -2.42895 1.9849 -19.364
O -3.02269 2.73079 -19.2783
O -3.00684 1.22548 -19.4385
H -0.521494 -8.34647 -15.9914
O 0.293682 -8.4937 -16.471
O -0.251417 -7.89391 -15.1923
H -6.07052 -9.16067 -2.33676
O -5.39752 -9.00692 -2.99984
O -6.89324 -9.16346 -2.826
H -6.80358 8.77191 -0.396698
O -6.40667 9.50691 -0.864104
O -7.51033 9.16611 0.114512
H -4.12738 -0.170378 -19.2134
O -4.92243 0.354171 -19.1187
O -4.43119 -1.00386 -19.5729
H -6.40405 -5.17475 -4.87964
O -6.04202 -5.53965 -4.07217
O -5.69773 -4.63715 -5.23786
H 8.10234 3.89826 -19.3693
O 8.68476 3.79746 -20.1222
O 8.65147 3.69476 -18.6122
H -5.41178 2.63971 1.57109
O -4.47934 2.73484 1.37684
O -5.44286 2.02303 2.30251
H -9.59396 9.06253 3.37064
O -9.94572 8.17231 3.37179
O -9.31813 9.21274 4.27485
H -1.65517 -5.39019 0.420859
O -1.67292 -5.60943 1.35244
O -1.23045 -6.14085 0.00570089
H -5.8255 9.93661 -5.41443
O -6.33177 9.55115 -6.1295
O -5.13021 -9.55108 -5.85082
H -8.62847 -5.15991 -16.4055
O -8.64957 -6.07911 -16.6717
O -9.13296 -5.13386 -15.5925
H -9.90798 4.04393 -20.816
O -9.14174 3.66647 -20.384
O -9.83801 4.98409 -20.6504
H 3.78177 4.23671 -19.3172
O 3.6728 4.01565 -18.3923
O 4.66394 3.93485 -19.5338
H 1.27154 6.47416 -3.61195
O 1.16191 6.5884 -4.55596
O 1.69581 7.28109 -3.32023
H 0.0658049 -0.0538693 -19.3753
O 0.703935 0.581796 -19.6993
O -0.385049 0.400171 -18.6634
H -1.41731 6.16484 5.53881
O -1.81537 6.16297 4.6683
O -1.14546 5.25804 5.68034
H 2.25909 1.97354 -19.4858
O 2.95458 2.62095 -19.6015
O 1.47271 2.49325 -19.3193
H 6.92517 8.86842 -2.37248
O 6.95246 9.01979 -1.42772
O 7.83457 8.69221 -2.61366
H -8.19492 6.8447 6.85307
O -8.34387 6.63356 5.93141
O -8.02357 7.78642 6.8589
H 9.10735 -1.9867 -10.9202
O 9.86176 -2.12551 -10.3476
O 8.64254 -2.82343 -10.9118
H -7.95999 3.6613 -13.7396
O -8.39934 2.939 -14.1885
O -8.01284 4.39334 -14.3541
H -1.90459 -2.38127 -19.2803
O -1.10801 -2.91136 -19.3066
O -1.59079 -1.4801 -19.2051
H -2.67163 -6.06659 -13.5697
O -2.71522 -6.8089 -12.967
O -1.79043 -5.71226 -13.4507
H 3.17905 -0.79595 -4.59914
O 3.24318 -1.18897 -5.46958
O 2.61289 -1.3914 -4.10809
H 3.97783 -0.206556 0.728664
O 4.39978 0.652379 0.749241
O 3.32214 -0.135274 0.0349669
H -2.84519 9.19695 -14.2492
O -2.41111 8.56336 -13.6779
O -2.3662 -9.96621 -14.1094
H 9.80966 -1.03829 -13.5656
O -9.43431 -1.05689 -13.7227
O 9.70559 -1.40092 -12.6859
H 3.91518 -2.06556 -15.0001
O 3.11428 -2.58817 -14.9592
O 4.54405 -2.62543 -15.4554
H 5.56705 9.10944 1.23928
O 4.84237 9.08929 1.86432
O 6.35316 9.14422 1.7843
H -6.80089 0.817027 -1.33353
O -7.21696 0.0660007 -0.910353
O -7.52382 1.41307 -1.52933
H 4.26264 -9.55487 -1.15073
O 4.59005 -9.87122 -1.99272
O 4.97528 -9.01938 -0.80198
H 1.17044 -1.16993 -11.1133
O 1.96424 -1.54243 -11.4971
O 1.47629 -0.702467 -10.336
H -2.88914 6.55331 -12.7232
O -3.8159 6.314 -12.7141
O -2.58984 6.32076 -13.6022
H 3.30515 -3.09373 -11.9582
O 3.12446 -3.79249 -12.587
O 4.23399 -2.89649 -12.079
H 1.16426 8.80449 2.54013
O 1.55041 9.45483 1.95346
O 1.12077 8.00454 2.01628
H -1.86211 6.04607 -19.5953
O -1.94837 6.3122 -18.6799
O -2.71495 6.24163 -19.9834
H -5.94878 2.0832 -19.5485
O -6.6603 2.72238 -19.5861
O -5.1524 2.60429 -19.6509
H 8.92527 -1.86224 -1.39173
O 8.12468 -1.53524 -0.981423
O 8.67718 -2.71032 -1.75978
H -1.45066 -2.10379 -2.74482
O -2.31 -1.92419 -3.12628
O -1.61414 -2.16632 -1.80376
H 3.22632 1.93069 -5.32219
O 2.9447 1.02066 -5.22848
O 2.59471 2.31604 -5.92948
H 9.92141 -9.02943 11.0313
O -9.45799 -9.10671 10.5249
O 9.48934 -9.87684 10.9243
H 6.86727 -0.545861 -12.0606
O 7.4656 0.164313 -12.2927
O 7.40147 -1.15133 -11.5465
H -5.59835 -2.56374 -6.86246
O -6.38331 -2.64046 -7.40486
O -4.87833 -2.79891 -7.44768
H -7.49392 0.333632 -14.0842
O -7.10676 -0.000278323 -14.8934
O -7.05585 -0.156572 -13.3885
H 9.52043 9.0652 -20.7679
O 8.81678 9.11976 -20.1212
O 10.0023 8.27256 -20.5318
H -7.10302 3.07516 -16.4972
O -6.92291 3.97255 -16.217
O -6.42805 2.54963 -16.0677
H -9.2403 -7.62904 -14.1899
O -8.95827 -8.38431 -13.6739
O -8.47963 -7.04809 -14.2005
H -8.86682 -8.92473 -20.5687
O -9.11556 -8.03437 -20.3205
O -9.69827 -9.36802 -20.7373
H 3.49764 7.08949 -7.63273
O 2.80131 7.20611 -6.98639
O 3.84744 6.21665 -7.4538
H -6.25134 5.4202 -2.39376
O -5.86624 5.44121 -1.5177
O -7.09592 5.85976 -2.29525
H -8.97538 5.53137 -15.5615
O -8.19572 6.02972 -15.8065
O -9.46162 5.42893 -16.3796
H 3.89975 -3.97495 -19.3641
O 3.17517 -3.35152 -19.4146
O 4.68362 -3.4437 -19.504
H 9.33882 7.45503 -9.41362
O 8.54912 7.50131 -9.95257
O 10.0576 7.60424 -10.0278
H 9.76909 -0.883819 -17.66
O -9.94229 -0.656912 -18.4585
O -10.0429 -0.316738 -16.9867
H -4.3778 -3.99862 -13.8174
O -3.9352 -3.22687 -13.4643
O -3.66715 -4.58017 -14.0877
H 2.67062 8.93584 -3.58648
O 3.21698 9.39247 -4.22618
O 1.89508 9.48932 -3.49467
H -0.602804 -2.54713 -12.9487
O 0.0219494 -1.91269 -12.5974
O -0.830807 -2.20586 -13.8134
H -2.78508 1.95188 -8.30028
O -3.72239 1.76512 -8.35325
O -2.58692 1.92182 -7.3643
H -5.18261 3.51959 -4.30999
O -6.01149 3.15347 -4.61845
O -5.4317 4.11642 -3.60432
H 6.10114 -7.88267 0.567022
O 6.64585 -8.66678 0.498469
O 6.72217 -7.15516 0.531119
H -0.0231913 -8.67813 -19.7506
O 0.477797 -8.7074 -18.9355
O 0.606019 -8.92588 -20.4281
H -8.36656 -9.33583 -3.75728
O -8.68279 -9.15327 -4.6421
O -9.08264 -9.06044 -3.18491
H 4.55035 -9.90222 -17.4136
O 4.61515 9.21699 -17.8272
O 4.49312 -9.28799 -18.1455
H 8.50866 -3.98606 -5.25816
O 9.40825 -4.0131 -4.93221
O 8.26239 -3.06252 -5.20663
H 3.00683 -9.51061 -9.65422
O 3.46282 -9.11336 -10.3962
O 3.63831 9.85022 -9.28804
H 6.06163 -2.0087 -19.4575
O 6.78795 -1.38783 -19.5141
O 5.28352 -1.45963 -19.361
H -0.740754 8.70857 -16.7678
O -0.727266 9.66561 -16.7564
O -0.488141 8.4756 -17.6612
H 3.7109 -8.52661 -12.5832
O 4.17962 -8.21046 -13.3556
O 2.79584 -8.29912 -12.748
H 2.03908 -6.26873 -19.5251
O 2.68393 -5.66499 -19.8937
O 2.5492 -7.03644 -19.267
H 0.626026 6.04912 1.92333
O 1.00425 5.23163 2.24718
O -0.180005 6.15719 2.42818
H 8.74202 -3.82126 3.3577
O 8.85792 -3.8239 4.30785
O 9.62645 -3.92876 3.00776
H 5.01933 -4.93265 -7.61471
O 4.88719 -5.26516 -8.50251
O 4.84872 -3.99321 -7.68242
H -1.96218 2.6071 2.27101
O -1.06194 2.55601 2.59225
O -2.50275 2.49266 3.05262
H 5.45992 2.35055 -3.3694
O 4.54249 2.34585 -3.64239
O 5.85035 3.07879 -3.85257
H -6.10845 -0.707336 -16.241
O -6.34944 -1.26928 -16.9774
O -5.18874 -0.912813 -16.0732
H -8.79999 7.29586 -11.0963
O -8.00823 7.73847 -10.7906
O -8.80092 7.43283 -12.0436
H 6.48327 5.11078 -14.8184
O 6.52692 4.26168 -15.2581
O 5.99755 5.67022 -15.4244
H -7.77206 -1.75069 10.6889
O -8.40044 -1.76127 11.4109
O -7.61616 -2.67455 10.4929
H 4.02687 -7.06042 -6.11747
O 4.33232 -6.31439 -6.63358
O 3.11144 -7.17118 -6.37428
H 8.13783 7.32978 7.36353
O 7.60918 6.72915 7.88888
O 8.57271 6.76822 6.72184
H -4.21459 7.9169 -19.2791
O -4.17421 8.01074 -18.3273
O -4.09747 8.80626 -19.6131
H -2.09589 -8.82472 -12.2297
O -1.5315 -9.56068 -11.9929
O -2.41519 -8.48808 -11.3925
H -3.92407 -4.19669 -19.1763
O -3.05432 -3.797 -19.1744
O -3.83748 -4.9572 -19.7511
H -1.73344 0.263386 -16.9993
O -1.96355 0.93383 -16.3561
O -2.32885 0.419678 -17.7323
H -7.02112 6.20697 0.634805
O -7.95647 6.23307 0.433108
O -6.67016 7.01014 0.250139
H -3.11369 9.26772 -7.73684
O -2.45458 8.67664 -7.37292
O -3.84541 8.69657 -7.9705
H -9.38559 -3.92003 10.6353
O -9.61758 -3.23149 11.2585
O -9.50889 -4.73526 11.1216
H -9.51492 -7.76044 -10.051
O -9.30972 -8.04336 -9.15987
O -9.46592 -6.80511 -10.0167
H 7.04652 0.386462 -15.1287
O 7.79178 -0.213752 -15.1049
O 6.32207 -0.14351 -15.4612
H -0.197925 3.74444 -19.2612
O -0.744977 2.98112 -19.4464
O -0.810173 4.48003 -19.2442
H 6.4461 -6.9474 -19.1272
O 6.92974 -6.17714 -19.4255
O 7.0181 -7.68583 -19.3364
H -0.0910852 -5.4138 -13.05
O -0.0475892 -4.51684 -12.7186
O 0.821937 -5.65841 -13.2009
H -1.25199 3.33242 -13.1108
O -1.27721 3.81006 -12.2817
O -0.437591 2.83079 -13.0741
H -3.533 -2.21366 -16.8428
O -3.02239 -2.21404 -17.6525
O -4.18952 -2.89798 -16.9728
H 0.780124 6.56176 -6.58751
O 0.94866 5.64899 -6.82133
O -0.155617 6.68207 -6.74921
H 6.41647 -9.00273 -11.9424
O 5.58579 -8.52758 -11.9632
O 6.92322 -8.57019 -11.2551
H -8.00532 3.93457 -19.0759
O -7.74834 3.54476 -18.2403
O -7.54443 4.77312 -19.1014
H 7.71994 6.61887 10.7683
O 8.23065 6.68703 11.575
O 7.42712 5.70784 10.7459
H 7.27783 -2.83068 -15.4955
O 7.92712 -2.99105 -16.1803
O 6.53115 -3.37743 -15.7399
H -7.89189 -7.65506 -17.7061
O -7.9896 -8.5755 -17.95
O -7.17617 -7.33584 -18.2557
H -4.90173 1.90437 -15.1558
O -4.7143 2.59359 -14.5185
O -4.24393 1.23116 -14.9816
H -10.02 -6.81662 -19.4171
O 9.86873 -6.80036 -18.508
O -9.73147 -5.92061 -19.5908
H -8.9939 0.143811 -10.4043
O -9.74106 0.0394223 -10.9934
O -9.3853 0.2594 -9.53843
H 0.513819 -2.27542 -16.4843
O -0.136242 -1.62029 -16.7382
O 1.35259 -1.89458 -16.7444
H 2.15073 8.11782 -16.4489
O 1.49435 7.812 -17.0749
O 1.64384 8.5505 -15.7619
H 4.08346 7.72012 -19.3359
O 3.21045 7.34481 -19.2209
O 4.67745 6.97317 -19.2619
H -7.28461 -6.29073 -9.06366
O -6.52548 -6.7068 -9.47213
O -7.30703 -6.65022 -8.17681
H -6.04625 -2.28183 -19.072
O -5.36506 -2.84163 -18.6994
O -6.71071 -2.89246 -19.3912
H -3.76866 4.12303 -10.3634
O -3.82547 3.4802 -9.65648
O -3.3274 4.87527 -9.96888
H 0.569191 7.92114 -9.0066
O 1.09537 7.81902 -8.21355
O 0.686032 7.09737 -9.47986
H -7.19533 3.16106 -11.1556
O -7.35466 3.31956 -12.0861
O -7.21077 2.20796 -11.0685
H 6.69242 -5.23392 7.92771
O 6.68929 -6.18486 7.81849
O 5.80298 -5.02195 8.21089
H -0.376881 4.78648 8.24368
O 0.5725 4.69271 8.16549
O -0.524825 4.96379 9.17261
H -2.3813 9.82731 -3.56206
O -1.59435 9.48003 -3.14213
O -2.72638 -9.51615 -2.93599
H -7.31197 -9.50734 -10.4032
O -6.88626 -8.65599 -10.3021
O -6.58943 9.85464 -10.5136
H 10.0442 -4.64519 -14.2415
O 9.51278 -5.41045 -14.0219
O 9.41545 -4.0027 -14.5703
H -5.04425 -8.85197 -18.8216
O -5.23192 -7.95664 -19.1034
O -4.1191 -8.9805 -19.0309
H -2.51869 1.55073 7.47096
O -2.76612 1.97595 6.64987
O -1.87045 2.1381 7.85957
H -1.27779 -1.88115 -9.63223
O -0.392348 -1.81588 -9.98996
O -1.64896 -1.00664 -9.74922
H 2.93592 0.224957 -13.6584
O 3.42324 -0.498745 -14.0521
O 3.58416 0.69218 -13.1314
H -2.27232 -1.45431 5.81103
O -1.53672 -1.99876 5.53048
O -3.00868 -1.75199 5.27681
H -3.89743 7.58374 -4.44228
O -4.51318 8.3086 -4.55029
O -3.10392 7.99241 -4.09652
H 5.4197 1.5516 -7.00487
O 6.14422 1.91229 -6.4938
O 4.65461 1.64808 -6.43781
H -2.02055 4.17288 11.0309
O -2.74185 4.79463 11.1277
O -2.42044 3.31618 11.1805
H 2.05717 -6.59197 8.56742
O 1.29715 -6.18296 8.98132
O 1.71687 -7.40235 8.18833
H 2.25178 5.18894 7.92605
O 2.96732 5.01057 7.31579
O 2.48659 6.0223 8.33422
H 8.37202 -8.52134 -19.9817
O 9.1757 -8.00157 -19.9685
O 8.39396 -8.9759 -20.8238
H 8.26329 1.66079 0.145693
O 7.34019 1.57532 -0.0926471
O 8.47395 0.838682 0.588412
H -0.575368 0.456005 -13.6411
O 0.33351 0.418243 -13.3432
O -1.09391 0.367314 -12.8414
H -0.782155 2.11187 -5.8995
O -0.235297 1.35787 -5.67888
O -1.67423 1.8279 -5.70001
H -4.13573 -1.23126 2.06127
O -4.30971 -0.717471 1.27261
O -3.24105 -0.99684 2.30789
H -1.50588 -1.40961 2.34809
O -1.09449 -2.01606 2.96389
O -0.805469 -0.805261 2.10231
H 5.91791 -2.86886 -12.7984
O 6.18075 -2.02609 -12.4284
O 6.28201 -2.86638 -13.6837
H 8.90111 6.63535 -14.2738
O 8.16929 6.19822 -14.7092
O 9.66898 6.11873 -14.5182
H 5.78055 2.82753 -9.64784
O 6.57809 3.34447 -9.53405
O 5.40271 2.77288 -8.77007
H -7.77577 -6.80979 2.43617
O -7.64848 -6.56794 1.51882
O -7.0725 -7.43257 2.61998
H -5.50522 1.59207 6.5646
O -6.37642 1.33503 6.86655
O -5.19984 2.21993 7.2194
H 10.0075 -6.42448 11.6369
O -10.0063 -7.3631 11.5668
O 9.08507 -6.33306 11.3982
H 4.8733 -4.58983 -2.61595
O 4.7845 -4.50012 -1.66711
O 4.20888 -4.00221 -2.97579
H 3.48007 7.80511 8.89119
O 4.15725 7.5137 9.50172
O 2.87025 8.30778 9.43126
H -2.47928 -9.86163 -19.1939
O -1.87631 9.47556 -18.8204
O -1.96417 -9.40912 -19.8618
H 8.57831 -4.29658 5.98091
O 9.41275 -4.11863 6.41481
O 7.97048 -4.48243 6.69662
H 8.38068 -9.3053 0.00120363
O 8.80069 9.81787 -0.0739842
O 8.97592 -8.70592 -0.448986
H 1.27961 4.90691 -14.4016
O 0.707663 4.13959 -14.3834
O 2.15184 4.56061 -14.2131
H -2.4552 -7.80818 -2.00616
O -1.56454 -7.59631 -2.28558
O -2.3526 -8.1548 -1.11984
H -9.47871 -9.70584 6.32994
O -9.30329 -8.77554 6.18856
O -8.93749 -9.94026 7.08383
H -9.88668 0.506989 -3.25394
O -9.64909 1.22057 -2.66184
O 9.73728 -0.0618643 -2.73001
H 2.66622 2.21199 5.73441
O 2.00621 2.82948 5.41927
O 3.18889 2.00347 4.96009
H 1.36131 -2.42549 -3.27077
O 0.430605 -2.33634 -3.06564
O 1.62239 -3.24468 -2.85005
H 8.5626 1.77902 -11.4034
O 8.02471 2.16104 -12.0969
O 8.3174 2.2635 -10.6151
H 8.84842 -7.47005 -7.61689
O 8.44626 -6.90527 -6.95694
O 8.20668 -8.16551 -7.76086
H 2.3151 -8.80885 7.15884
O 2.9092 -8.37335 6.54761
O 2.39407 -9.73931 6.94847
H -3.17977 5.56058 -16.9853
O -2.68994 5.92041 -16.2459
O -4.09697 5.62269 -16.7187
H -4.1667 -0.541393 8.05677
O -3.38667 -0.642613 7.5113
O -4.17354 0.385369 8.29615
H -6.35347 -1.78266 6.46051
O -5.58327 -1.97621 5.92612
O -6.00571 -1.32461 7.22568
H 8.6868 1.23313 -5.29832
O 8.2581 2.01975 -4.96117
O 9.26541 0.952545 -4.58929
H 6.57719 5.04153 7.92729
O 5.86124 5.07316 7.29275
O 7.04397 4.23139 7.72225
H 5.75936 6.87968 -5.87407
O 4.97632 6.94862 -5.32788
O 6.04755 7.78433 -5.99567
H -0.790593 -9.93268 8.75456
O -0.30976 -9.45641 9.43145
O -0.247536 9.28139 8.56835
H 8.02172 -7.39601 -10.3867
O 8.85523 -7.79847 -10.1428
O 8.1887 -6.45439 -10.3454
H -9.30664 6.14871 -0.846572
O -9.29248 6.57894 -1.70152
O -9.71122 5.29733 -1.01302
H 1.0687 -6.57973 5.73885
O 1.99095 -6.75953 5.92151
O 1.0793 -6.07205 4.92744
H -5.98449 0.264232 10.9272
O -6.48634 1.07069 10.8088
O -6.64716 -0.423408 10.9924
H 4.09589 -0.544301 8.67879
O 3.89221 0.390959 8.68466
O 3.29771 -0.961712 8.3549
H -8.43159 8.40901 10.3013
O -9.36474 8.47902 10.0999
O -8.21832 7.49089 10.1346
H -4.23191 -5.08899 -2.53038
O -4.22509 -5.51533 -1.6734
O -4.1688 -4.15429 -2.33393
H -0.107121 -0.0713453 7.91502
O -0.903086 0.190291 7.45218
O -0.0744703 0.503153 8.67995
H -7.79991 -6.6349 10.1131
O -8.62123 -6.59302 10.6029
O -7.99534 -6.20639 9.27977
H 0.0851077 -0.959795 -5.74843
O -0.453202 -1.22347 -5.00216
O 0.289182 -1.77948 -6.19866
H -3.7567 9.91044 -0.553655
O -4.43836 9.24197 -0.484982
O -3.59046 -9.80256 0.350396
H -2.00675 9.94624 12.1439
O -1.81617 -9.25128 11.6266
O -2.87266 -9.86954 12.5174
H -3.66687 -3.24975 -8.77176
O -3.33578 -4.14497 -8.69973
O -2.89963 -2.72839 -9.0079
H 2.07199 -3.79626 2.78064
O 2.08238 -3.24557 3.5635
O 2.99594 -3.94415 2.57897
H 1.24992 2.44744 -12.689
O 1.65295 1.62564 -12.969
O 1.98677 3.04509 -12.5621
H 4.83796 -4.09964 -16.5832
O 5.42191 -4.80148 -16.2957
O 4.57519 -4.3534 -17.468
H -1.63608 2.79391 -15.7771
O -2.13178 3.5723 -16.0313
O -1.52742 2.87739 -14.8298
H 3.99131 -2.09754 10.9575
O 4.20481 -1.59593 11.7443
O 4.15438 -1.49139 10.2349
H -5.96235 4.20523 10.992
O -5.49045 3.64111 10.3793
O -5.33503 4.89206 11.2177
H -4.5055 -6.21159 8.43466
O -4.29665 -5.32326 8.14571
O -5.40899 -6.35019 8.15054
H -8.94728 2.68529 -1.91488
O -9.37167 3.16593 -1.20417
O -8.83069 3.33512 -2.60796
H 6.1372 -3.82156 10.8376
O 5.61702 -3.02008 10.8949
O 5.51097 -4.52642 11.0027
H -0.168717 -8.53156 4.39667
O 0.406966 -7.8292 4.69917
O -0.923103 -8.49352 4.98462
H 9.22249 6.91563 2.93242
O 9.30754 5.96258 2.90606
O 8.35155 7.08882 2.57507
H -7.588 2.36051 -5.64644
O -7.80351 1.55511 -6.11668
O -7.65678 3.04982 -6.307
H 3.73803 8.30994 -13.9088
O 3.1629 9.03941 -13.6779
O 3.30635 7.89025 -14.653
H -7.46683 9.38049 -7.65985
O -8.36739 9.64498 -7.47207
O -7.25925 9.80849 -8.49049
H 0.315158 -1.97929 10.8715
O 0.673898 -1.77898 10.0069
O 0.824137 -2.73133 11.1741
H -2.49723 -8.72924 -9.43988
O -1.57628 -8.88659 -9.64803
O -2.72773 -9.42811 -8.82777
H 8.00821 -1.59692 10.653
O 7.60373 -2.4614 10.5802
O 7.2982 -1.02326 10.9411
H 3.35795 -1.47206 -7.29856
O 4.11302 -1.13606 -7.78147
O 3.01375 -2.17472 -7.84994
H -8.1354 -3.70631 5.80582
O -8.77209 -3.62783 6.51625
O -7.36303 -3.23824 6.12297
H -8.44195 -4.2421 3.20061
O -8.23823 -4.08469 4.12254
O -8.42717 -5.19497 3.11087
H -4.78685 -1.43913 -4.20443
O -5.68478 -1.10786 -4.18978
O -4.7283 -1.93784 -5.01935
H -0.650455 2.66286 -10.1124
O -0.47583 1.77626 -10.4281
O -1.46825 2.58587 -9.62095
H -3.61898 2.46297 4.55132
O -4.07371 1.84438 5.12298
O -4.1367 3.26617 4.6068
H -2.26687 -6.02456 -8.29791
O -1.59095 -5.65707 -8.86739
O -2.23576 -6.96647 -8.46542
H 8.45858 -0.832499 1.54682
O 7.72514 -1.17544 1.03626
O 8.28765 -1.1283 2.44098
H -6.97736 -3.78925 -1.49133
O -6.14893 -3.31002 -1.50781
O -7.64926 -3.10799 -1.51725
H 0.614373 -9.34448 -3.07921
O 0.473473 -9.41477 -2.13505
O 0.480428 -8.41681 -3.27344
H -3.62808 -3.58959 7.69827
O -2.69656 -3.37481 7.64947
O -4.07438 -2.77947 7.45179
H 0.258114 2.96207 -0.697467
O -0.638718 3.29262 -0.645876
O 0.55154 3.20048 -1.57684
H 6.38175 7.69938 -16.521
O 5.63075 7.11037 -16.5937
O 6.09342 8.38218 -15.9152
H -4.59232 -2.51213 -1.59072
O -4.11386 -1.83115 -1.11789
O -4.84635 -2.09826 -2.41559
H -2.53989 -8.19207 6.03716
O -3.45734 -7.9256 6.09642
O -2.55299 -9.13533 6.19941
H 4.17888 6.27825 11.0791
O 3.44073 5.66917 11.0987
O 4.69998 6.0487 11.8485
H 5.35093 -6.67956 -10.1521
O 5.49531 -6.38926 -11.0527
O 6.22469 -6.89627 -9.8268
H 4.68623 6.91499 -2.93343
O 5.45817 7.48087 -2.94467
O 3.94538 7.51856 -2.98887
H 1.03544 2.63471 3.29678
O 1.26135 1.78453 3.67414
O 1.53697 2.67677 2.48258
H 0.161208 5.9743 10.8408
O -0.403606 5.24542 11.0976
O 1.05028 5.62896 10.9215
H -5.79747 -8.30056 10.9502
O -5.20521 -7.69233 11.3924
O -6.5035 -7.74753 10.6157
H -4.10514 0.319426 -0.166475
O -4.9372 0.630074 -0.523416
O -3.44102 0.693432 -0.745522
H -1.9231 -0.333283 10.9002
O -2.69336 -0.832612 10.6289
O -1.22707 -0.986357 10.9728
H -4.17898 6.28685 10.9454
O -4.76905 6.99447 10.6859
O -3.30289 6.62444 10.759
H 6.37037 5.37976 -8.00049
O 6.13579 5.92992 -7.25314
O 7.32754 5.37341 -8.00275
H -7.91788 2.01753 10.5931
O -8.08355 2.06269 9.65143
O -7.54696 2.87216 10.8128
H 4.13625 -6.28284 10.6853
O 4.72947 -6.98073 10.9633
O 3.93309 -6.48973 9.7731
H -5.73453 -4.08219 -16.4263
O -5.31433 -4.17417 -15.5712
O -6.66768 -4.20081 -16.2491
H -7.40043 -9.48445 8.6208
O -7.77576 9.80915 9.17236
O -7.20746 -8.7687 9.22636
H 10.0121 3.80628 0.215104
O 9.27003 3.20182 0.228866
O -9.51749 3.3907 0.771898
H 9.54325 8.18688 0.239166
O 9.7626 7.28037 0.023863
O 9.82576 8.29289 1.14756
H 9.5694 -6.62292 8.25218
O 9.4371 -5.82335 8.76151
O 8.76894 -7.1297 8.38879
H 3.72055 2.07301 8.24855
O 4.63065 2.14372 7.96055
O 3.20683 2.35748 7.49263
H -0.117866 -5.86458 10.8384
O 0.74554 -5.48302 10.997
O -0.690971 -5.11104 10.6971
H 9.20567 -6.83938 -16.1281
O 8.90376 -7.67874 -16.4753
O 9.84973 -7.07376 -15.4599
H 2.24264 8.64801 11.0278
O 2.6309 8.49372 11.889
O 1.37629 8.24424 11.0793
H -3.88347 6.71272 -1.35865
O -2.93786 6.77652 -1.49272
O -4.24908 6.67395 -2.24243
H -6.80078 -6.55654 6.92754
O -7.58311 -6.80198 6.43365
O -6.10476 -6.51902 6.27151
H -1.54496 -4.19447 -16.6607
O -2.1357 -3.46918 -16.4577
O -0.668001 -3.83241 -16.5339
H -0.697146 -3.9039 8.28348
O -1.29093 -3.47909 8.90251
O -0.983541 -4.81705 8.26432
H 2.41121 0.151392 -9.31613
O 2.61373 -0.127191 -8.42304
O 3.26339 0.347505 -9.70542
H 3.01093 8.1366 -0.402231
O 3.74697 7.84936 0.138115
O 3.36096 8.86303 -0.917996
H 8.22113 -7.11709 4.95816