ITEM: TIMESTEP
40000
ITEM: NUMBER OF ATOMS
1665
ITEM: BOX BOUNDS pp pp pp
-1.0093999999999999e+01 1.0093999999999999e+01
-9.9900000000000002e+00 9.9900035801999998e+00
-2.8981631193081675e+01 1.4855557193227044e+01
ITEM: ATOMS id type element mass x y z vx vy vz ix iy iz
1425 3 C 197 -6.1173 -8.1564 -28.715 0 0 0 0 0 0
1426 3 C 197 -8.1564 -6.1173 -28.715 0 0 0 0 0 0
1429 3 C 197 -2.0391 -8.1564 -28.715 0 0 0 0 0 0
1430 3 C 197 -4.0782 -6.1173 -28.715 0 0 0 0 0 0
1443 3 C 197 -6.1173 -4.0782 -28.715 0 0 0 0 0 0
1444 3 C 197 -8.1564 -2.0391 -28.715 0 0 0 0 0 0
1447 3 C 197 -2.0391 -4.0782 -28.715 0 0 0 0 0 0
1448 3 C 197 -4.0782 -2.0391 -28.715 0 0 0 0 0 0
1461 3 C 197 -6.1173 0 -28.715 0 0 0 0 0 0
1465 3 C 197 -2.0391 0 -28.715 0 0 0 0 0 0
1504 3 C 197 -8.1564 -8.1564 -26.9859 0 0 0 0 0 0
1505 3 C 197 -6.1173 -6.1173 -26.9859 0 0 0 0 0 0
1506 3 C 197 -6.1173 -8.1564 -25.2567 0 0 0 0 0 0
1507 3 C 197 -8.1564 -6.1173 -25.2567 0 0 0 0 0 0
1508 3 C 197 -4.0782 -8.1564 -26.9859 0 0 0 0 0 0
1509 3 C 197 -2.0391 -6.1173 -26.9859 0 0 0 0 0 0
1510 3 C 197 -2.0391 -8.1564 -25.2567 0 0 0 0 0 0
1511 3 C 197 -4.0782 -6.1173 -25.2567 0 0 0 0 0 0
1522 3 C 197 -8.1564 -4.0782 -26.9859 0 0 0 0 0 0
1523 3 C 197 -6.1173 -2.0391 -26.9859 0 0 0 0 0 0
1524 3 C 197 -6.1173 -4.0782 -25.2567 0 0 0 0 0 0
1525 3 C 197 -8.1564 -2.0391 -25.2567 0 0 0 0 0 0
1526 3 C 197 -4.0782 -4.0782 -26.9859 0 0 0 0 0 0
1527 3 C 197 -2.0391 -2.0391 -26.9859 0 0 0 0 0 0
1528 3 C 197 -2.0391 -4.0782 -25.2567 0 0 0 0 0 0
1529 3 C 197 -4.0782 -2.0391 -25.2567 0 0 0 0 0 0
1540 3 C 197 -8.1564 0 -26.9859 0 0 0 0 0 0
1542 3 C 197 -6.1173 0 -25.2567 0 0 0 0 0 0
1544 3 C 197 -4.0782 0 -26.9859 0 0 0 0 0 0
1546 3 C 197 -2.0391 0 -25.2567 0 0 0 0 0 0
1585 3 C 197 -8.1564 -8.1564 -23.5276 0 0 0 0 0 0
1586 3 C 197 -6.1173 -6.1173 -23.5276 0 0 0 0 0 0
1589 3 C 197 -4.0782 -8.1564 -23.5276 0 0 0 0 0 0
1590 3 C 197 -2.0391 -6.1173 -23.5276 0 0 0 0 0 0
1603 3 C 197 -8.1564 -4.0782 -23.5276 0 0 0 0 0 0
1604 3 C 197 -6.1173 -2.0391 -23.5276 0 0 0 0 0 0
1607 3 C 197 -4.0782 -4.0782 -23.5276 0 0 0 0 0 0
1608 3 C 197 -2.0391 -2.0391 -23.5276 0 0 0 0 0 0
1621 3 C 197 -8.1564 0 -23.5276 0 0 0 0 0 0
1625 3 C 197 -4.0782 0 -23.5276 0 0 0 0 0 0
1587 3 C 197 -6.1173 -8.1564 -21.7985 0 0 0 0 0 0
1588 3 C 197 -8.1564 -6.1173 -21.7985 0 0 0 0 0 0
1591 3 C 197 -2.0391 -8.1564 -21.7985 0 0 0 0 0 0
1592 3 C 197 -4.0782 -6.1173 -21.7985 0 0 0 0 0 0
1605 3 C 197 -6.1173 -4.0782 -21.7985 0 0 0 0 0 0
1606 3 C 197 -8.1564 -2.0391 -21.7985 0 0 0 0 0 0
1609 3 C 197 -2.0391 -4.0782 -21.7985 0 0 0 0 0 0
1610 3 C 197 -4.0782 -2.0391 -21.7985 0 0 0 0 0 0
1623 3 C 197 -6.1173 0 -21.7985 0 0 0 0 0 0
1627 3 C 197 -2.0391 0 -21.7985 0 0 0 0 0 0
1433 3 C 197 2.0391 -8.1564 -28.715 0 0 0 0 0 0
1434 3 C 197 0 -6.1173 -28.715 0 0 0 0 0 0
1437 3 C 197 6.1173 -8.1564 -28.715 0 0 0 0 0 0
1438 3 C 197 4.0782 -6.1173 -28.715 0 0 0 0 0 0
1440 3 C 197 8.1564 -6.1173 -28.715 0 0 0 0 0 0
1451 3 C 197 2.0391 -4.0782 -28.715 0 0 0 0 0 0
1452 3 C 197 0 -2.0391 -28.715 0 0 0 0 0 0
1455 3 C 197 6.1173 -4.0782 -28.715 0 0 0 0 0 0
1456 3 C 197 4.0782 -2.0391 -28.715 0 0 0 0 0 0
1458 3 C 197 8.1564 -2.0391 -28.715 0 0 0 0 0 0
1469 3 C 197 2.0391 0 -28.715 0 0 0 0 0 0
1473 3 C 197 6.1173 0 -28.715 0 0 0 0 0 0
1512 3 C 197 0 -8.1564 -26.9859 0 0 0 0 0 0
1513 3 C 197 2.0391 -6.1173 -26.9859 0 0 0 0 0 0
1514 3 C 197 2.0391 -8.1564 -25.2567 0 0 0 0 0 0
1515 3 C 197 0 -6.1173 -25.2567 0 0 0 0 0 0
1516 3 C 197 4.0782 -8.1564 -26.9859 0 0 0 0 0 0
1517 3 C 197 6.1173 -6.1173 -26.9859 0 0 0 0 0 0
1518 3 C 197 6.1173 -8.1564 -25.2567 0 0 0 0 0 0
1519 3 C 197 4.0782 -6.1173 -25.2567 0 0 0 0 0 0
1520 3 C 197 8.1564 -8.1564 -26.9859 0 0 0 0 0 0
1521 3 C 197 8.1564 -6.1173 -25.2567 0 0 0 0 0 0
1530 3 C 197 0 -4.0782 -26.9859 0 0 0 0 0 0
1531 3 C 197 2.0391 -2.0391 -26.9859 0 0 0 0 0 0
1532 3 C 197 2.0391 -4.0782 -25.2567 0 0 0 0 0 0
1533 3 C 197 0 -2.0391 -25.2567 0 0 0 0 0 0
1534 3 C 197 4.0782 -4.0782 -26.9859 0 0 0 0 0 0
1535 3 C 197 6.1173 -2.0391 -26.9859 0 0 0 0 0 0
1536 3 C 197 6.1173 -4.0782 -25.2567 0 0 0 0 0 0
1537 3 C 197 4.0782 -2.0391 -25.2567 0 0 0 0 0 0
1538 3 C 197 8.1564 -4.0782 -26.9859 0 0 0 0 0 0
1539 3 C 197 8.1564 -2.0391 -25.2567 0 0 0 0 0 0
1548 3 C 197 0 0 -26.9859 0 0 0 0 0 0
1550 3 C 197 2.0391 0 -25.2567 0 0 0 0 0 0
1552 3 C 197 4.0782 0 -26.9859 0 0 0 0 0 0
1554 3 C 197 6.1173 0 -25.2567 0 0 0 0 0 0
1556 3 C 197 8.1564 0 -26.9859 0 0 0 0 0 0
1593 3 C 197 0 -8.1564 -23.5276 0 0 0 0 0 0
1594 3 C 197 2.0391 -6.1173 -23.5276 0 0 0 0 0 0
1597 3 C 197 4.0782 -8.1564 -23.5276 0 0 0 0 0 0
1598 3 C 197 6.1173 -6.1173 -23.5276 0 0 0 0 0 0
1601 3 C 197 8.1564 -8.1564 -23.5276 0 0 0 0 0 0
1611 3 C 197 0 -4.0782 -23.5276 0 0 0 0 0 0
1612 3 C 197 2.0391 -2.0391 -23.5276 0 0 0 0 0 0
1615 3 C 197 4.0782 -4.0782 -23.5276 0 0 0 0 0 0
1616 3 C 197 6.1173 -2.0391 -23.5276 0 0 0 0 0 0
1619 3 C 197 8.1564 -4.0782 -23.5276 0 0 0 0 0 0
1629 3 C 197 0 0 -23.5276 0 0 0 0 0 0
1633 3 C 197 4.0782 0 -23.5276 0 0 0 0 0 0
1637 3 C 197 8.1564 0 -23.5276 0 0 0 0 0 0
1595 3 C 197 2.0391 -8.1564 -21.7985 0 0 0 0 0 0
1596 3 C 197 0 -6.1173 -21.7985 0 0 0 0 0 0
1599 3 C 197 6.1173 -8.1564 -21.7985 0 0 0 0 0 0
1600 3 C 197 4.0782 -6.1173 -21.7985 0 0 0 0 0 0
1602 3 C 197 8.1564 -6.1173 -21.7985 0 0 0 0 0 0
1613 3 C 197 2.0391 -4.0782 -21.7985 0 0 0 0 0 0
1614 3 C 197 0 -2.0391 -21.7985 0 0 0 0 0 0
1617 3 C 197 6.1173 -4.0782 -21.7985 0 0 0 0 0 0
1618 3 C 197 4.0782 -2.0391 -21.7985 0 0 0 0 0 0
1620 3 C 197 8.1564 -2.0391 -21.7985 0 0 0 0 0 0
1631 3 C 197 2.0391 0 -21.7985 0 0 0 0 0 0
1635 3 C 197 6.1173 0 -21.7985 0 0 0 0 0 0
1462 3 C 197 -8.1564 2.0391 -28.715 0 0 0 0 0 0
1466 3 C 197 -4.0782 2.0391 -28.715 0 0 0 0 0 0
1479 3 C 197 -6.1173 4.0782 -28.715 0 0 0 0 0 0
1480 3 C 197 -8.1564 6.1173 -28.715 0 0 0 0 0 0
1483 3 C 197 -2.0391 4.0782 -28.715 0 0 0 0 0 0
1484 3 C 197 -4.0782 6.1173 -28.715 0 0 0 0 0 0
1496 3 C 197 -6.1173 8.1564 -28.715 0 0 0 0 0 0
1498 3 C 197 -2.0391 8.1564 -28.715 0 0 0 0 0 0
1541 3 C 197 -6.1173 2.0391 -26.9859 0 0 0 0 0 0
1543 3 C 197 -8.1564 2.0391 -25.2567 0 0 0 0 0 0
1545 3 C 197 -2.0391 2.0391 -26.9859 0 0 0 0 0 0
1547 3 C 197 -4.0782 2.0391 -25.2567 0 0 0 0 0 0
1558 3 C 197 -8.1564 4.0782 -26.9859 0 0 0 0 0 0
1559 3 C 197 -6.1173 6.1173 -26.9859 0 0 0 0 0 0
1560 3 C 197 -6.1173 4.0782 -25.2567 0 0 0 0 0 0
1561 3 C 197 -8.1564 6.1173 -25.2567 0 0 0 0 0 0
1562 3 C 197 -4.0782 4.0782 -26.9859 0 0 0 0 0 0
1563 3 C 197 -2.0391 6.1173 -26.9859 0 0 0 0 0 0
1564 3 C 197 -2.0391 4.0782 -25.2567 0 0 0 0 0 0
1565 3 C 197 -4.0782 6.1173 -25.2567 0 0 0 0 0 0
1576 3 C 197 -8.1564 8.1564 -26.9859 0 0 0 0 0 0
1577 3 C 197 -6.1173 8.1564 -25.2567 0 0 0 0 0 0
1578 3 C 197 -4.0782 8.1564 -26.9859 0 0 0 0 0 0
1579 3 C 197 -2.0391 8.1564 -25.2567 0 0 0 0 0 0
1622 3 C 197 -6.1173 2.0391 -23.5276 0 0 0 0 0 0
1626 3 C 197 -2.0391 2.0391 -23.5276 0 0 0 0 0 0
1639 3 C 197 -8.1564 4.0782 -23.5276 0 0 0 0 0 0
1640 3 C 197 -6.1173 6.1173 -23.5276 0 0 0 0 0 0
1643 3 C 197 -4.0782 4.0782 -23.5276 0 0 0 0 0 0
1644 3 C 197 -2.0391 6.1173 -23.5276 0 0 0 0 0 0
1657 3 C 197 -8.1564 8.1564 -23.5276 0 0 0 0 0 0
1659 3 C 197 -4.0782 8.1564 -23.5276 0 0 0 0 0 0
1624 3 C 197 -8.1564 2.0391 -21.7985 0 0 0 0 0 0
1628 3 C 197 -4.0782 2.0391 -21.7985 0 0 0 0 0 0
1641 3 C 197 -6.1173 4.0782 -21.7985 0 0 0 0 0 0
1642 3 C 197 -8.1564 6.1173 -21.7985 0 0 0 0 0 0
1645 3 C 197 -2.0391 4.0782 -21.7985 0 0 0 0 0 0
1646 3 C 197 -4.0782 6.1173 -21.7985 0 0 0 0 0 0
1658 3 C 197 -6.1173 8.1564 -21.7985 0 0 0 0 0 0
1660 3 C 197 -2.0391 8.1564 -21.7985 0 0 0 0 0 0
1470 3 C 197 0 2.0391 -28.715 0 0 0 0 0 0
1474 3 C 197 4.0782 2.0391 -28.715 0 0 0 0 0 0
1476 3 C 197 8.1564 2.0391 -28.715 0 0 0 0 0 0
1487 3 C 197 2.0391 4.0782 -28.715 0 0 0 0 0 0
1488 3 C 197 0 6.1173 -28.715 0 0 0 0 0 0
1491 3 C 197 6.1173 4.0782 -28.715 0 0 0 0 0 0
1492 3 C 197 4.0782 6.1173 -28.715 0 0 0 0 0 0
1494 3 C 197 8.1564 6.1173 -28.715 0 0 0 0 0 0
1500 3 C 197 2.0391 8.1564 -28.715 0 0 0 0 0 0
1502 3 C 197 6.1173 8.1564 -28.715 0 0 0 0 0 0
1549 3 C 197 2.0391 2.0391 -26.9859 0 0 0 0 0 0
1551 3 C 197 0 2.0391 -25.2567 0 0 0 0 0 0
1553 3 C 197 6.1173 2.0391 -26.9859 0 0 0 0 0 0
1555 3 C 197 4.0782 2.0391 -25.2567 0 0 0 0 0 0
1557 3 C 197 8.1564 2.0391 -25.2567 0 0 0 0 0 0
1566 3 C 197 0 4.0782 -26.9859 0 0 0 0 0 0
1567 3 C 197 2.0391 6.1173 -26.9859 0 0 0 0 0 0
1568 3 C 197 2.0391 4.0782 -25.2567 0 0 0 0 0 0
1569 3 C 197 0 6.1173 -25.2567 0 0 0 0 0 0
1570 3 C 197 4.0782 4.0782 -26.9859 0 0 0 0 0 0
1571 3 C 197 6.1173 6.1173 -26.9859 0 0 0 0 0 0
1572 3 C 197 6.1173 4.0782 -25.2567 0 0 0 0 0 0
1573 3 C 197 4.0782 6.1173 -25.2567 0 0 0 0 0 0
1574 3 C 197 8.1564 4.0782 -26.9859 0 0 0 0 0 0
1575 3 C 197 8.1564 6.1173 -25.2567 0 0 0 0 0 0
1580 3 C 197 0 8.1564 -26.9859 0 0 0 0 0 0
1581 3 C 197 2.0391 8.1564 -25.2567 0 0 0 0 0 0
1582 3 C 197 4.0782 8.1564 -26.9859 0 0 0 0 0 0
1583 3 C 197 6.1173 8.1564 -25.2567 0 0 0 0 0 0
1584 3 C 197 8.1564 8.1564 -26.9859 0 0 0 0 0 0
1630 3 C 197 2.0391 2.0391 -23.5276 0 0 0 0 0 0
1634 3 C 197 6.1173 2.0391 -23.5276 0 0 0 0 0 0
1647 3 C 197 0 4.0782 -23.5276 0 0 0 0 0 0
1648 3 C 197 2.0391 6.1173 -23.5276 0 0 0 0 0 0
1651 3 C 197 4.0782 4.0782 -23.5276 0 0 0 0 0 0
1652 3 C 197 6.1173 6.1173 -23.5276 0 0 0 0 0 0
1655 3 C 197 8.1564 4.0782 -23.5276 0 0 0 0 0 0
1661 3 C 197 0 8.1564 -23.5276 0 0 0 0 0 0
1663 3 C 197 4.0782 8.1564 -23.5276 0 0 0 0 0 0
1665 3 C 197 8.1564 8.1564 -23.5276 0 0 0 0 0 0
1632 3 C 197 0 2.0391 -21.7985 0 0 0 0 0 0
1636 3 C 197 4.0782 2.0391 -21.7985 0 0 0 0 0 0
1638 3 C 197 8.1564 2.0391 -21.7985 0 0 0 0 0 0
1649 3 C 197 2.0391 4.0782 -21.7985 0 0 0 0 0 0
1650 3 C 197 0 6.1173 -21.7985 0 0 0 0 0 0
1653 3 C 197 6.1173 4.0782 -21.7985 0 0 0 0 0 0
1654 3 C 197 4.0782 6.1173 -21.7985 0 0 0 0 0 0
1656 3 C 197 8.1564 6.1173 -21.7985 0 0 0 0 0 0
1662 3 C 197 2.0391 8.1564 -21.7985 0 0 0 0 0 0
1664 3 C 197 6.1173 8.1564 -21.7985 0 0 0 0 0 0
202 2 C 15.999 -4.21014 -4.01623 -19.5142 0.000122959 -0.000127973 0.00027998 0 0 0
204 1 C 1.008 -3.89195 -4.80337 -19.9562 0.0269781 0.0112524 -0.000711914 0 0 0
413 1 C 1.008 -2.64421 -2.72501 -19.1154 0.0122742 0.029732 0.0172722 0 0 0
611 1 C 1.008 -1.83407 -7.15595 -19.1816 -0.000973225 -0.0060897 -0.0042062 0 0 0
203 1 C 1.008 -5.15905 -4.13347 -19.4688 0.00027212 -0.0148171 -0.0341861 0 0 0
412 2 C 15.999 -1.87537 -2.40626 -19.5882 0.0089252 0.0141065 0.00129497 0 0 0
414 1 C 1.008 -1.79883 -2.98983 -20.3431 -0.00572965 -0.00104348 0.0115308 0 0 0
596 1 C 1.008 -7.26837 -3.00221 -17.9933 0.00669432 -0.00454886 0.00173581 0 0 0
610 2 C 15.999 -2.325 -6.38145 -19.4562 0.00464126 0.000193139 0.00350746 0 0 0
612 1 C 1.008 -2.08095 -5.70588 -18.8235 0.0180417 -0.00480715 0.0036531 0 0 0
595 2 C 15.999 -6.77185 -2.87699 -18.802 0.00672203 0.00223077 0.00281727 0 0 0
597 1 C 1.008 -6.93732 -1.96651 -19.0467 -0.015637 -0.00378473 -0.00452445 0 0 0
235 2 C 15.999 -4.34986 -7.84134 -17.7754 -0.00489747 3.07839e-05 0.00308696 0 0 0
237 1 C 1.008 -5.21697 -7.72416 -18.1635 -0.0125652 -0.0185802 0.0146102 0 0 0
236 1 C 1.008 -3.77641 -8.02375 -18.5198 -0.0154525 -0.0127938 -0.0018728 0 0 0
316 2 C 15.999 -9.56881 0.979808 -16.6799 -0.00381928 -0.00173502 0.00440112 1 0 0
317 1 C 1.008 -8.68253 1.13045 -17.0086 -0.00641724 0.00917636 0.00239053 1 0 0
318 1 C 1.008 -9.4836 0.225245 -16.0971 0.00520484 -0.00609531 -0.0025549 1 0 0
252 1 C 1.008 -6.00643 -9.48204 -17.6658 0.0143201 0.0047322 0.00498669 0 0 0
361 2 C 15.999 -2.76648 -6.00379 -16.2428 0.00414376 -0.00159129 0.00194455 0 0 0
489 1 C 1.008 -8.87286 -4.29128 -20.4948 -0.0214838 -0.0315044 -0.0417166 1 0 0
460 2 C 15.999 -9.85809 -5.30039 -12.1764 -0.00437497 -0.00544455 0.00945658 0 1 0
462 1 C 1.008 9.78165 -5.10944 -11.4153 0.00569952 -0.0118763 0.0183307 -1 1 0
461 1 C 1.008 -9.00629 -4.92129 -11.9597 -0.00781206 0.0124281 -0.00813356 0 1 0
696 1 C 1.008 -8.38844 -5.16021 -17.8337 -0.00392238 0.0110489 0.0142058 0 1 0
33 1 C 1.008 -5.95688 -7.37455 -15.1928 0.0100047 0.0137721 -0.0156215 0 0 0
31 2 C 15.999 -6.6263 -6.71459 -15.0123 -0.00042609 -0.00447203 0.0122793 0 0 0
250 2 C 15.999 -6.1339 9.8457 -16.977 0.000742423 0.00247055 0.000321341 0 -1 0
653 1 C 1.008 -7.95814 -7.0385 -18.3741 0.00603959 0.0098107 0.00820005 0 1 0
652 2 C 15.999 -7.2158 -7.64218 -18.3468 3.85799e-05 0.00229708 0.00524028 0 1 0
32 1 C 1.008 -7.26409 -7.1649 -14.4585 0.0070835 -0.0377839 -0.00618664 0 0 0
259 2 C 15.999 -6.63136 -4.39499 -16.292 0.00446683 -7.50474e-05 0.00346091 0 0 0
260 1 C 1.008 -6.6213 -5.34652 -16.1885 0.00849187 0.000643446 0.00960242 0 0 0
558 1 C 1.008 -2.41407 -9.4332 -18.8977 0.00436398 -0.00561592 0.00767224 0 0 0
363 1 C 1.008 -3.17237 -6.82876 -16.5091 -0.0188321 0.0131008 -0.00835993 0 0 0
393 1 C 1.008 -0.712044 -1.09139 -19.4931 0.0109334 -0.00808053 -0.0110519 0 0 0
285 1 C 1.008 -3.8737 -3.32054 -17.7321 -0.00381307 -0.00866026 0.0251143 0 1 0
391 2 C 15.999 -0.09374 -0.362058 -19.4483 0.00247635 -0.00166406 0.00101021 0 0 0
358 2 C 15.999 -4.50158 -0.605782 -19.1706 0.00767534 -0.000328917 -0.00248608 0 0 0
556 2 C 15.999 -1.57987 -9.06693 -18.6041 0.00400856 0.00316354 -0.0022709 0 0 0
277 2 C 15.999 1.68335 -9.5732 -13.4909 0.00294226 0.00275285 0.000764849 0 0 0
487 2 C 15.999 -9.75115 -4.26084 -20.1154 -0.00332162 -0.00346364 -0.00192886 1 0 0
284 1 C 1.008 -4.15984 -2.46079 -16.5193 0.0169752 0.0165971 0.0121327 0 1 0
283 2 C 15.999 -3.64683 -2.48343 -17.3271 0.00164749 0.0006837 0.00283344 0 1 0
654 1 C 1.008 -7.49405 -8.38887 -18.8771 0.00444072 0.0210879 -0.0235005 0 1 0
475 2 C 15.999 -8.28843 -9.21908 -13.149 0.00615542 0.0064584 0.00724784 1 1 0
476 1 C 1.008 -7.75261 9.9845 -12.9869 0.0195841 0.00975191 -0.0212879 1 0 0
477 1 C 1.008 -9.10077 -9.56168 -13.5218 0.0136323 0.00640316 -0.0089991 1 1 0
50 1 C 1.008 -9.34044 -1.76312 -18.4368 0.00495397 0.0031497 -0.00139502 0 -1 0
278 1 C 1.008 1.21902 9.59932 -13.2704 0.00289385 0.0013268 -0.00454942 0 -1 0
47 1 C 1.008 -0.855944 -7.73245 -17.8107 -0.00270602 0.00819226 -0.0117318 1 1 0
48 1 C 1.008 -1.09913 -6.37409 -17.1881 0.0239035 0.0150331 -0.0162724 1 1 0
46 2 C 15.999 -0.465648 -7.0911 -17.2169 0.00318693 -0.0039063 -0.00250797 1 1 0
362 1 C 1.008 -2.80221 -6.01648 -15.2864 0.00215713 -0.0117503 0.00171762 0 0 0
51 1 C 1.008 -9.54929 -2.14574 -19.8866 0.000646109 0.014535 -0.00375644 0 -1 0
210 1 C 1.008 8.50567 9.5045 -20.5125 0.0122208 0.00476848 0.00604416 -1 -1 0
525 1 C 1.008 -8.80989 -2.42277 -16.1727 -0.00525061 0.0198595 -0.0122277 0 0 0
557 1 C 1.008 -0.988759 -9.8187 -18.5633 0.016201 0.0116001 -0.0228341 0 0 0
360 1 C 1.008 -3.9529 -0.67488 -19.9519 -0.00500244 0.0114785 -0.0124156 0 0 0
698 1 C 1.008 -4.83926 9.87164 -20.3757 -0.0166762 0.0118034 0.0115714 0 0 0
697 2 C 15.999 -4.20604 -9.79423 -19.7302 0.000243884 0.00149964 -4.9406e-05 0 1 0
699 1 C 1.008 -3.77066 9.39342 -19.4158 0.00352353 -0.00417758 -0.0189127 0 0 0
57 1 C 1.008 7.80452 -0.132521 -14.383 -0.00905229 -0.0275805 0.0179669 -1 0 0
279 1 C 1.008 2.37808 -9.50928 -12.8355 -0.000910837 0.00164557 0.00494665 0 0 0
511 2 C 15.999 0.658268 -7.23669 -14.6606 -0.00357353 0.00162815 -0.00106227 0 0 0
512 1 C 1.008 0.211576 -7.2303 -15.5072 0.000345953 0.0172283 -0.00301422 0 0 0
1076 1 C 1.008 -9.53955 -5.282 -13.97 -0.017301 0.0119316 0.00416056 0 1 0
508 2 C 15.999 -4.37284 -8.58739 -15.0224 0.00446033 -0.00215677 -0.00331969 0 1 0
509 1 C 1.008 -3.41903 -8.60388 -15.1012 0.00424073 0.00170993 -0.00688119 0 1 0
510 1 C 1.008 -4.68883 -8.92111 -15.8621 0.002327 0.0226357 -0.0123555 0 1 0
694 2 C 15.999 -9.18486 -5.68573 -17.9098 0.00321112 0.00150639 0.00571578 0 1 0
91 2 C 15.999 0.196619 -4.48466 -18.9828 0.00580726 0.0062119 0.00751346 0 0 0
93 1 C 1.008 0.314736 -4.2011 -19.8894 -0.00461603 0.0016221 0.00472593 0 0 0
49 2 C 15.999 -9.80111 -1.49461 -19.2318 0.00300116 0.00969212 0.00196234 0 -1 0
275 1 C 1.008 5.03368 -6.24296 -15.0855 0.0109405 0.0297767 -0.0148996 0 1 0
523 2 C 15.999 -9.07195 -2.78322 -17.0199 0.00212248 -0.00121844 -0.00555264 0 0 0
524 1 C 1.008 -9.68628 -3.4844 -16.8027 -0.00382601 0.00765806 0.00632639 0 0 0
695 1 C 1.008 -9.31176 -6.05691 -17.0366 0.00201251 -0.00532258 0.00262598 0 1 0
635 1 C 1.008 8.70684 0.119542 -19.0448 -0.0133226 0.00710329 -0.0232174 0 0 0
488 1 C 1.008 -9.76632 -4.98275 -19.487 0.00853893 0.00886271 0.012446 1 0 0
600 1 C 1.008 4.41724 -8.90819 -19.4291 0.00793836 0.00352498 -0.00546544 0 0 0
208 2 C 15.999 7.85796 9.98087 -19.9931 0.0083924 0.00355526 0.00237243 -1 -1 0
92 1 C 1.008 0.687226 -5.30431 -18.9218 -0.029017 -0.0156883 -0.00561066 0 0 0
598 2 C 15.999 4.1213 -7.99847 -19.4616 -0.00334186 4.6297e-05 -0.000318042 0 0 0
209 1 C 1.008 8.26507 -9.14988 -19.8221 0.00839807 0.00203201 0.00996006 -1 0 0
599 1 C 1.008 4.70887 -7.57719 -20.0889 0.00303664 0.0151289 0.0158226 0 0 0
224 1 C 1.008 7.20529 -2.7283 -16.9046 -0.00325975 -0.000625441 0.012225 -1 0 0
223 2 C 15.999 7.6538 -1.8879 -16.8108 0.0031735 -0.00255257 -0.00138218 -1 0 0
15 1 C 1.008 7.4947 -3.12213 -19.6874 0.0064459 -0.000569618 0.000203312 -1 1 0
502 2 C 15.999 3.7408 -4.56969 -18.9889 0.00377076 0.00266841 -0.000744926 0 0 0
504 1 C 1.008 3.19143 -3.78624 -18.964 0.0159614 0.0120017 -0.0273212 0 0 0
503 1 C 1.008 3.15121 -5.26724 -19.2753 0.00486189 0.0119712 -0.0256964 0 0 0
190 2 C 15.999 2.16965 -2.19857 -19.1251 -0.000818607 -0.00852666 0.000536738 0 0 0
191 1 C 1.008 1.28805 -1.92722 -19.3808 0.00445281 0.00280673 -0.00559582 0 0 0
192 1 C 1.008 2.61612 -1.38236 -18.8999 0.00967203 -0.0138017 -0.00119723 0 0 0
553 2 C 15.999 1.80764 -6.5311 -19.1538 0.00259912 0.00151955 0.000788647 0 1 0
555 1 C 1.008 1.21621 -6.78752 -18.4462 0.00169892 0.00550569 0.00147529 0 1 0
554 1 C 1.008 2.50968 -7.18123 -19.1273 -0.00857609 -0.010936 -0.00853896 0 1 0
13 2 C 15.999 7.92493 -3.94618 -19.4592 0.00408065 -0.00204932 -0.000682316 -1 1 0
19 2 C 15.999 6.10995 -8.11813 -17.2893 0.00268091 0.0017415 0.00452125 -1 1 0
21 1 C 1.008 5.87252 -7.64542 -18.0871 0.00802724 0.00239164 0.0033313 -1 1 0
20 1 C 1.008 6.65504 -7.50279 -16.799 0.00346557 -0.000462052 0.00640375 -1 1 0
14 1 C 1.008 8.70236 -3.9735 -20.017 0.00204109 -0.0054499 -0.00336261 -1 1 0
24 1 C 1.008 5.19754 -5.67588 -19.0329 -0.00116377 -0.00646194 0.0398992 0 1 0
22 2 C 15.999 6.03791 -6.11409 -19.1669 0.00163297 0.00964373 0.00473539 0 1 0
23 1 C 1.008 6.63616 -5.41245 -19.4239 -0.0146797 0.0262892 0.0121831 0 1 0
671 1 C 1.008 7.96275 -7.07556 -18.9393 0.0025407 0.00619358 0.00560977 0 1 0
18 1 C 1.008 2.80286 -3.19344 -16.2746 -0.0210452 -0.0126189 -0.012207 -1 0 0
225 1 C 1.008 8.50289 -2.11034 -16.429 0.00771099 -0.00453694 -0.0125933 -1 0 0
544 2 C 15.999 5.93261 -1.85926 -19.4072 -0.00284553 0.000352865 -0.000194038 -1 0 0
545 1 C 1.008 5.24202 -1.19954 -19.4712 0.0125475 0.0135328 -0.0301967 -1 0 0
17 1 C 1.008 2.76715 -2.38613 -17.5548 -0.0446427 0.0139768 0.00526849 -1 0 0
16 2 C 15.999 2.81137 -2.29439 -16.603 -0.00919286 -0.00629538 0.00550049 -1 0 0
546 1 C 1.008 6.60333 -1.4522 -18.8588 -0.0118371 -0.00637518 0.0158138 -1 0 0
527 1 C 1.008 4.89209 -3.90733 -16.5134 0.00240334 0.00292269 -0.0081965 -1 1 0
526 2 C 15.999 5.69869 -3.61347 -16.9369 0.00356248 0.0102707 -0.000874048 -1 1 0
569 1 C 1.008 3.10791 -5.28474 -16.0393 -0.00769902 -0.0140311 0.00394983 0 2 0
568 2 C 15.999 2.21601 -4.93896 -16.0738 0.00108438 0.0081564 -7.18452e-05 0 2 0
570 1 C 1.008 1.6661 -5.66332 -15.7752 -0.0207265 0.0130081 -0.0285975 0 2 0
98 1 C 1.008 -1.63656 -3.16849 -16.9659 -0.00200646 -0.000184116 0.00158756 0 0 0
97 2 C 15.999 -0.740109 -2.94739 -16.7135 -0.00040454 -0.0114909 0.00576883 0 0 0
472 2 C 15.999 -9.42329 -8.65227 -16.5472 -0.000664576 -0.00266625 -0.00126543 1 1 0
473 1 C 1.008 -9.85105 -9.41438 -16.9377 0.0109529 -0.0085332 -0.00251522 1 1 0
474 1 C 1.008 -8.49013 -8.86451 -16.5669 0.000920256 0.00258674 0.0177714 1 1 0
672 1 C 1.008 9.33638 -6.44961 -19.0543 0.00483685 -0.00163484 -0.00963862 0 1 0
634 2 C 15.999 7.83242 0.046308 -18.6623 -0.00354054 0.013276 0.000258933 0 0 0
257 1 C 1.008 5.2174 9.09364 -19.6387 0.00925065 0.0160416 0.0128545 0 -1 0
670 2 C 15.999 8.84019 -7.23429 -19.2874 -0.00101698 -0.000740767 -0.000192256 0 1 0
99 1 C 1.008 -0.194542 -3.34718 -17.3908 -0.00454958 0.0165434 -0.0140967 0 0 0
1077 1 C 1.008 -8.46548 -5.47968 -15.0184 -0.00125879 -0.0198795 0.0265718 0 1 0
181 2 C 15.999 1.73564 -9.93992 -18.4218 0.00275051 0.00376255 0.00734007 0 0 0
183 1 C 1.008 2.67826 9.87424 -18.436 0.00816959 0.033142 0.0227998 0 -1 0
1 2 C 15.999 8.53209 -6.98495 -16.344 0.000567287 0.00990239 0.00513987 0 1 0
513 1 C 1.008 1.00592 -8.12482 -14.5794 -0.014543 -0.00351941 -0.0102527 0 0 0
274 2 C 15.999 4.32346 -6.36403 -15.7157 0.00504783 -0.00561319 -0.00134974 0 1 0
45 1 C 1.008 -1.03236 -2.2958 -14.3605 -0.0183529 -0.0247119 -0.00960104 0 0 0
276 1 C 1.008 4.57535 -7.14098 -16.2148 0.0186093 -0.0117792 0.0150987 0 1 0
708 1 C 1.008 5.73692 -5.16021 -13.3115 -0.00195044 -0.0181337 0.00855167 0 1 0
638 1 C 1.008 2.12444 -3.17556 -14.006 -0.00458033 -0.0109673 -0.000156358 0 0 0
59 1 C 1.008 9.83009 -3.62442 -14.715 0.0232162 0.0220609 0.00921539 0 0 0
528 1 C 1.008 5.49595 -3.62309 -17.8723 0.012107 0.00849301 -0.00269169 -1 1 0
3 1 C 1.008 8.8483 -6.26725 -15.7952 -0.0173483 -0.00945975 0.0407845 0 1 0
2 1 C 1.008 9.31184 -7.50948 -16.5259 0.00454282 0.0102629 0.021133 0 1 0
359 1 C 1.008 -4.00009 -1.0475 -18.4853 0.00820732 -0.0311681 -0.0228845 0 0 0
251 1 C 1.008 -6.43606 9.06405 -17.4395 -0.000311999 0.00722434 -0.00701249 0 -1 0
613 2 C 15.999 -7.82289 9.85325 -19.9658 -0.00391136 0.00104321 -0.000518299 0 -1 0
195 1 C 1.008 -4.33657 1.25692 -18.5756 0.0101547 -0.0068337 0.000730802 0 0 0
137 1 C 1.008 -2.45405 -1.61184 -15.817 0.0120335 -0.00993538 0.0166847 0 0 0
138 1 C 1.008 -2.86626 -0.173123 -15.5888 0.00210554 -0.00778435 -0.014707 0 0 0
197 1 C 1.008 -2.91876 1.39199 -13.6004 0.00406776 0.0021036 0.000193819 0 0 0
136 2 C 15.999 -2.37513 -0.892012 -15.191 0.000488809 0.00180545 0.00463988 0 0 0
615 1 C 1.008 -7.33904 9.02827 -19.9265 0.00282401 0.00494685 -0.0015297 0 -1 0
193 2 C 15.999 -4.4519 2.19682 -18.7153 0.00139205 -0.0078716 0.000929055 0 0 0
194 1 C 1.008 -4.30244 2.58753 -17.8544 0.00456232 -0.00604602 -0.000462384 0 0 0
530 1 C 1.008 -0.0752263 7.53467 -16.2897 -0.001807 -0.000487359 -0.0128498 0 0 0
392 1 C 1.008 -0.638871 0.404036 -19.269 -0.0121121 -0.0028669 -0.0384166 0 0 0
485 1 C 1.008 -5.98978 -0.284939 -18.2874 0.00402221 0.00269875 -0.0187298 1 0 0
486 1 C 1.008 -6.76113 1.00073 -18.0776 -0.00644236 -0.0026355 -0.0244893 1 0 0
614 1 C 1.008 -8.74328 9.59101 -19.9844 -0.00186188 -0.00635876 0.00213717 0 -1 0
484 2 C 15.999 -6.87612 0.0542577 -18.1625 0.00302156 -0.00566106 -0.00333887 1 0 0
336 1 C 1.008 -3.49918 7.69102 -18.0716 0.00801112 0.0150909 0.0112322 0 0 0
459 1 C 1.008 -6.32968 2.89293 -19.3687 -0.00519954 0.00323093 -0.0104315 0 0 0
349 2 C 15.999 -0.469938 7.83676 -19.1086 0.0117951 0.00236123 -0.00491614 0 -1 0
350 1 C 1.008 0.058125 7.07332 -19.3422 0.00146721 -0.00158428 -0.0154605 0 -1 0
351 1 C 1.008 -0.580573 8.31289 -19.9316 -0.00150291 0.00290804 -0.0028062 0 -1 0
325 2 C 15.999 -4.92151 5.45202 -19.0521 0.0018371 -0.00143858 0.00057642 0 0 0
457 2 C 15.999 -7.12369 2.57162 -18.9414 0.0050889 -0.00623181 0.00160766 0 0 0
326 1 C 1.008 -4.15466 4.94191 -18.7914 -0.0173432 -0.0311876 -0.00108378 0 0 0
327 1 C 1.008 -4.69059 5.81178 -19.9086 0.0220803 0.00667185 0.00945079 0 0 0
346 2 C 15.999 -1.87336 1.83352 -19.3646 -0.000140093 0.00602564 0.00426903 0 0 0
347 1 C 1.008 -1.49258 2.63921 -19.714 0.00643895 -0.00627871 -0.0169475 0 0 0
348 1 C 1.008 -2.81749 1.99088 -19.3732 0.00175504 0.0176624 0.0103393 0 0 0
454 2 C 15.999 -2.3784 5.07777 -18.6458 0.00274134 -9.58641e-06 0.00223379 0 0 0
455 1 C 1.008 -2.49292 4.6063 -17.8207 0.000161934 0.00582815 0.00519959 0 0 0
456 1 C 1.008 -1.46254 4.92993 -18.8816 0.00701694 0.00932288 0.0129269 0 0 0
458 1 C 1.008 -7.42542 1.85685 -19.5021 -0.00230454 -0.00106261 -0.000980853 0 0 0
246 1 C 1.008 -6.98511 6.87444 -18.9325 -0.00195518 0.00608863 -0.0192815 0 0 0
244 2 C 15.999 -6.39642 7.6153 -18.7882 0.00847866 -0.00511151 -0.0042068 0 0 0
334 2 C 15.999 -3.1271 7.92306 -18.9225 -0.000574263 -0.0012893 0.00304983 0 0 0
335 1 C 1.008 -2.25199 7.53531 -18.9155 -0.00191797 -0.00437668 0.000181621 0 0 0
245 1 C 1.008 -5.52357 7.22429 -18.7498 0.00282107 -0.0183686 -0.0105713 0 0 0
1342 2 C 15.999 -5.88337 5.86442 -16.5543 -8.09023e-05 -0.00222116 -0.00513903 0 0 0
1343 1 C 1.008 -5.56498 5.73056 -17.447 -0.0214287 0.00270084 -0.0134762 0 0 0
226 2 C 15.999 0.283591 9.70138 -16.2639 -0.00221511 0.00513206 -3.34471e-05 0 -1 0
227 1 C 1.008 0.931862 9.94278 -15.6023 0.011186 -0.035603 0.00155436 0 -1 0
1344 1 C 1.008 -6.8239 6.01141 -16.6545 -0.00482512 -0.0159769 0.0194924 0 0 0
662 1 C 1.008 -2.10238 6.34666 -14.6478 -0.0183598 0.00187231 0.012159 0 0 0
661 2 C 15.999 -2.34836 5.43794 -14.8209 -0.00588051 -0.000723458 0.00808609 0 0 0
663 1 C 1.008 -2.95589 5.49015 -15.5588 0.01319 -0.00796794 -0.00813893 0 0 0
495 1 C 1.008 -4.77191 3.87816 -15.8756 -0.0180366 -0.0227324 0.0109566 -1 0 0
228 1 C 1.008 0.600717 -9.87188 -17.0703 0.0099629 0.00933675 0.00689702 0 0 0
618 1 C 1.008 0.412052 4.42575 -20.5504 0.00541993 -0.0185071 0.00512432 0 0 0
36 1 C 1.008 -10.0137 1.17472 -18.5271 -0.0175467 0.00553726 -0.011042 0 0 0
34 2 C 15.999 -9.85812 1.15078 -19.4713 0.00189997 0.00158356 -0.00773058 0 0 0
35 1 C 1.008 -9.70864 0.225697 -19.6665 0.0243465 0.00312266 0.00219333 0 0 0
198 1 C 1.008 -4.4074 1.14543 -13.7231 0.010913 -0.0281598 -0.0219727 0 0 0
529 2 C 15.999 0.626793 6.90459 -16.4522 0.00112477 -0.000355364 -0.000758852 0 0 0
531 1 C 1.008 1.03072 7.20044 -17.268 -0.00690864 -0.0200895 -0.0118844 0 0 0
494 1 C 1.008 -3.77069 2.81628 -15.4732 -0.00186406 -0.0174016 -0.0151867 -1 0 0
381 1 C 1.008 9.3635 3.96064 -15.8381 0.00562646 0.0161055 -0.00350944 -1 0 0
493 2 C 15.999 -3.99456 3.41414 -16.1865 -0.00319842 0.0061098 0.00493544 -1 0 0
304 2 C 15.999 -3.91454 7.66429 -16.1478 -0.00809357 0.00424673 0.00223394 0 0 0
306 1 C 1.008 -4.33694 8.45401 -15.8099 -0.0158976 0.00065421 0.000873068 0 0 0
379 2 C 15.999 -10.0872 3.78886 -16.4239 0.00426106 0.0104118 -0.00354218 0 0 0
206 1 C 1.008 2.94519 4.84889 -14.8489 0.0314362 -0.000526206 0.0224795 -1 -1 0
619 2 C 15.999 -9.88652 8.42673 -21.047 -0.0014087 0.00112622 -0.000962511 1 0 0
205 2 C 15.999 3.19025 5.68012 -15.2554 0.000317669 -0.00235454 -4.84806e-05 -1 -1 0
384 1 C 1.008 -8.08088 4.68544 -18.5109 0.0134035 0.0238203 -0.0213467 0 0 0
382 2 C 15.999 -8.23088 5.50512 -18.0399 -0.00319045 0.00487782 0.00636159 0 0 0
196 2 C 15.999 -3.69505 1.67235 -14.0852 0.00381025 -0.00629104 -0.00421671 0 0 0
9 1 C 1.008 -2.71308 4.54875 -13.2019 0.00753968 0.0110775 0.00153278 0 0 0
7 2 C 15.999 -2.60171 4.20696 -12.3147 -0.00429997 0.00428985 0.000374403 0 0 0
8 1 C 1.008 -3.48877 3.98962 -12.0282 -0.00635726 -0.0127091 -0.0190515 0 0 0
10 2 C 15.999 -7.35373 3.15687 -16.0743 0.000760907 -0.00240654 -0.000255209 1 0 0
869 1 C 1.008 -9.60768 8.49064 -15.2548 0.00196545 0.0189933 -0.00605054 -1 1 0
182 1 C 1.008 1.52908 -9.65244 -19.3111 0.0114913 0.0144598 0.00877513 0 0 0
69 1 C 1.008 5.56379 0.0302771 -15.7983 0.0154822 0.0182437 -0.0146294 -1 0 0
67 2 C 15.999 6.29472 -0.316972 -15.287 -0.0023793 0.00250904 0.000235014 -1 0 0
68 1 C 1.008 6.73855 -0.9209 -15.8824 -0.00978798 -0.0154178 0.0129091 -1 0 0
256 2 C 15.999 4.33518 9.36365 -19.3838 0.00175134 0.00140402 0.00244263 0 -1 0
184 2 C 15.999 4.4066 1.32642 -16.1339 0.00276107 -0.0032952 -0.000354875 -1 0 0
185 1 C 1.008 4.57313 1.85741 -16.9127 0.0114143 -0.0111357 -0.00385651 -1 0 0
380 1 C 1.008 10.0754 2.84334 -16.5708 -0.0108691 0.0124235 -0.0139019 -1 0 0
370 2 C 15.999 7.64194 4.5252 -15.2947 -0.00189145 -0.00588716 -0.00076865 -1 0 0
207 1 C 1.008 2.3583 6.07164 -15.5215 -0.0133557 -0.0473745 -0.0236519 -1 -1 0
131 1 C 1.008 6.80317 1.68856 -15.9868 0.0258305 -0.0121713 0.00771948 0 0 0
258 1 C 1.008 4.10483 8.77957 -18.6612 -0.00621351 -0.0177662 -0.0156412 0 -1 0
120 1 C 1.008 3.32766 0.74016 -19.7039 -0.00922562 -0.000183128 -0.00644202 0 0 0
118 2 C 15.999 4.0645 0.215877 -19.3902 -0.00811455 0.00631109 0.00179348 0 0 0
534 1 C 1.008 7.76717 -9.55327 -16.6486 0.013089 0.00228257 0.00495938 0 0 0
52 2 C 15.999 1.42223 2.30948 -16.93 0.00214339 0.000900473 -0.000533644 0 0 0
53 1 C 1.008 1.02892 1.46242 -16.7201 0.000241276 0.0101293 0.0329997 0 0 0
617 1 C 1.008 0.664299 4.90491 -19.1366 0.00221566 0.0166731 -0.00624814 0 0 0
130 2 C 15.999 7.16592 2.36813 -16.555 0.00230369 -0.0046412 0.00175788 0 0 0
621 1 C 1.008 -9.99382 7.68124 -20.4562 -0.00300257 0.00926337 0.00900421 1 0 0
119 1 C 1.008 4.61371 0.83635 -18.911 -0.00734834 0.0158172 -0.0114477 0 0 0
636 1 C 1.008 7.94762 -0.533235 -17.9093 0.002972 -0.0279914 -0.0325012 0 0 0
532 2 C 15.999 7.82049 9.55466 -17.0396 0.00393009 0.00406584 -0.000294269 0 -1 0
372 1 C 1.008 7.38675 5.29526 -15.8028 0.0162101 -0.00238427 -0.00452748 -1 0 0
54 1 C 1.008 0.829004 2.95238 -16.5414 0.0261093 0.0163096 0.0104798 0 0 0
616 2 C 15.999 0.0648831 4.37284 -19.6599 0.00540064 0.000787528 0.0062267 0 0 0
620 1 C 1.008 9.78084 8.19936 -21.8174 -0.0134739 -0.00170385 0.00802083 0 0 0
548 1 C 1.008 4.84587 5.88232 -14.3273 0.00332453 0.00503826 -0.0104046 -1 0 0
547 2 C 15.999 5.67044 6.22937 -13.9869 3.74036e-05 0.00387816 -0.00127141 -1 0 0
280 2 C 15.999 -9.65852 3.9593 -20.414 0.000308752 -0.00114146 0.00799474 1 0 0
281 1 C 1.008 -9.40618 3.04119 -20.3158 -0.0117081 -0.00338118 0.0178775 1 0 0