1665
Atoms. Timestep: 40000
H 8.53209 -6.98495 -16.344
O 9.31184 -7.50948 -16.5259
O 8.8483 -6.26725 -15.7952
H 2.83797 4.12605 -8.88353
O 2.79954 3.17748 -8.76121
O 3.49449 4.42289 -8.25335
H -2.60171 4.20696 -12.3147
O -3.48877 3.98962 -12.0282
O -2.71308 4.54875 -13.2019
H -7.35373 3.15687 -16.0743
O -6.96393 3.10219 -16.9469
O -8.23563 3.49655 -16.2263
H 7.92493 -3.94618 -19.4592
O 8.70236 -3.9735 -20.017
O 7.4947 -3.12213 -19.6874
H 2.81137 -2.29439 -16.603
O 2.76715 -2.38613 -17.5548
O 2.80286 -3.19344 -16.2746
H 6.10995 -8.11813 -17.2893
O 6.65504 -7.50279 -16.799
O 5.87252 -7.64542 -18.0871
H 6.03791 -6.11409 -19.1669
O 6.63616 -5.41245 -19.4239
O 5.19754 -5.67588 -19.0329
H -6.85709 -7.53037 -10.55
O -6.04312 -7.20054 -10.1693
O -6.59589 -8.31485 -11.0323
H 8.27485 8.40027 -7.88549
O 8.16325 8.96704 -8.64876
O 9.10296 8.68173 -7.49659
H -6.6263 -6.71459 -15.0123
O -7.26409 -7.1649 -14.4585
O -5.95688 -7.37455 -15.1928
H -9.85812 1.15078 -19.4713
O -9.70864 0.225697 -19.6665
O -10.0137 1.17472 -18.5271
H 9.80224 -6.88157 0.374437
O 9.08389 -6.25547 0.465003
O -9.67676 -6.37729 -0.0246454
H 6.58675 -8.75197 -10.2757
O 6.09067 -9.51791 -10.5646
O 7.3296 -8.70614 -10.8776
H -0.421028 -2.85373 -13.8797
O -0.172262 -3.53306 -14.5065
O -1.03236 -2.2958 -14.3605
H -0.465648 -7.0911 -17.2169
O -0.855944 -7.73245 -17.8107
O -1.09913 -6.37409 -17.1881
H -9.80111 -1.49461 -19.2318
O -9.34044 -1.76312 -18.4368
O -9.54929 -2.14574 -19.8866
H 1.42223 2.30948 -16.93
O 1.02892 1.46242 -16.7201
O 0.829004 2.95238 -16.5414
H 8.62202 0.137542 -13.9646
O 8.37903 0.891622 -13.4275
O 7.80452 -0.132521 -14.383
H 9.28908 -2.83599 -14.7588
O 9.83009 -3.62442 -14.715
O 8.70788 -2.9014 -14.001
H -2.01831 0.417038 -6.36745
O -1.5758 0.791899 -7.12897
O -2.4514 1.16203 -5.95071
H 4.62575 -2.99079 -5.1615
O 5.49383 -2.76674 -4.82613
O 4.18207 -3.40495 -4.42132
H 6.29472 -0.316972 -15.287
O 6.73855 -0.9209 -15.8824
O 5.56379 0.0302771 -15.7983
H -0.340859 1.12025 -10.5723
O -0.170349 1.01495 -11.5083
O -1.04715 0.501655 -10.3859
H 1.96535 -9.45798 -4.34514
O 2.10654 -8.51172 -4.37507
O 1.04286 -9.57035 -4.57452
H 8.06327 7.48603 -10.8621
O 7.88131 8.2353 -11.4293
O 7.23013 7.01781 -10.8084
H 0.605284 8.20601 -12.1878
O 0.059107 7.48366 -11.8777
O 0.556184 8.8603 -11.4909
H -0.215562 3.945 -15.5023
O 0.052277 4.65319 -16.088
O -0.980927 4.29021 -15.0427
H -2.56137 -6.52315 -7.7918
O -1.87434 -6.99028 -8.26722
O -2.11303 -6.13851 -7.03861
H -1.68471 -9.08615 -14.7266
O -1.06945 -8.54178 -14.2353
O -1.1897 -9.3761 -15.4928
H 0.196619 -4.48466 -18.9828
O 0.687226 -5.30431 -18.9218
O 0.314736 -4.2011 -19.8894
H -0.644449 0.144219 -13.2289
O 0.0544254 -0.396475 -13.5969
O -1.34469 0.107495 -13.8805
H -0.740109 -2.94739 -16.7135
O -1.63656 -3.16849 -16.9659
O -0.194542 -3.34718 -17.3908
H -6.55426 1.48332 -13.897
O -7.31695 0.915014 -14.0045
O -6.67899 2.17743 -14.5442
H 2.37514 6.4043 -18.805
O 2.93187 6.8935 -18.1992
O 2.91507 5.66438 -19.0829
H -0.273832 8.05826 -1.72465
O 0.353151 8.74348 -1.49313
O -0.0531569 7.82584 -2.62662
H 9.47733 6.07154 -12.7246
O 9.11378 6.52351 -11.9632
O 10.0067 6.73488 -13.1673
H 5.10168 -0.204834 -7.21626
O 4.65818 -0.316372 -8.05717
O 5.122 -1.08356 -6.83723
H 0.195685 8.95586 5.27865
O 1.14987 8.88809 5.24442
O -0.109024 8.42811 4.54049
H 4.0645 0.215877 -19.3902
O 4.61371 0.83635 -18.911
O 3.32766 0.74016 -19.7039
H 4.01873 9.49495 -0.771596
O 3.36782 8.81311 -0.605347
O 4.38578 9.6916 0.0903017
H 8.3871 4.30026 -18.7623
O 8.46402 4.14722 -17.8206
O 7.74668 3.65368 -19.059
H -4.76366 -3.38144 -14.4056
O -4.19637 -4.07978 -14.0789
O -4.88953 -2.80289 -13.6535
H 7.16592 2.36813 -16.555
O 6.80317 1.68856 -15.9868
O 7.53583 3.01291 -15.952
H -8.82359 9.57669 -7.11782
O -9.04827 9.34011 -8.01772
O -7.97375 -9.96864 -7.18901
H -2.37513 -0.892012 -15.191
O -2.45405 -1.61184 -15.817
O -2.86626 -0.173123 -15.5888
H 2.26109 1.55425 -11.6983
O 2.09868 0.840683 -12.3153
O 2.13348 1.1594 -10.8357
H 7.75969 9.87929 -12.3999
O 8.49155 -9.52545 -12.6228
O 7.00432 -9.70886 -12.8382
H 2.37274 7.24442 -0.861702
O 1.45495 6.9726 -0.865743
O 2.58231 7.39562 -1.78338
H 4.34338 2.43294 6.83328
O 4.17536 3.04713 7.54798
O 5.15002 1.98438 7.08699
H -5.6163 8.79569 -1.49849
O -4.73909 8.84199 -1.87873
O -5.84982 9.70705 -1.3221
H -2.79427 -6.15249 -13.2377
O -2.82297 -5.76715 -12.3619
O -3.52763 -6.76744 -13.2535
H -5.02889 -8.98257 -12.1341
O -5.12183 -9.93524 -12.1372
O -4.70235 -8.77036 -13.0085
H 6.09328 2.57062 -7.29482
O 5.4319 1.93481 -7.02178
O 5.67838 3.4223 -7.15794
H -9.16594 8.65822 -17.4787
O -9.9804 8.17422 -17.6152
O -8.5917 8.36614 -18.1866
H -3.40089 6.45322 1.06455
O -3.98815 6.48514 0.309322
O -3.88343 6.89597 1.76268
H 5.72581 -4.40849 -8.41529
O 6.19073 -3.91391 -7.7404
O 5.08326 -4.92811 -7.93221
H 6.17259 8.23816 -3.1045
O 5.33163 8.42977 -2.68941
O 6.72309 7.91259 -2.39231
H 5.75958 3.0118 -1.2977
O 5.64061 2.35963 -1.98819
O 6.42655 3.60618 -1.64134
H 6.08871 1.91841 -19.1181
O 6.53647 1.0958 -19.3158
O 6.32771 2.10989 -18.2112
H 1.73564 -9.93992 -18.4218
O 1.52908 -9.65244 -19.3111
O 2.67826 9.87424 -18.436
H 4.4066 1.32642 -16.1339
O 4.57313 1.85741 -16.9127
O 4.57106 1.91857 -15.4
H 1.81115 -1.54136 -0.349603
O 1.70366 -0.930938 -1.07904
O 2.73773 -1.47777 -0.118002
H 2.16965 -2.19857 -19.1251
O 1.28805 -1.92722 -19.3808
O 2.61612 -1.38236 -18.8999
H -4.4519 2.19682 -18.7153
O -4.30244 2.58753 -17.8544
O -4.33657 1.25692 -18.5756
H -3.69505 1.67235 -14.0852
O -2.91876 1.39199 -13.6004
O -4.4074 1.14543 -13.7231
H 5.39256 2.50731 -13.6044
O 6.04779 3.01519 -13.1258
O 4.55354 2.87121 -13.3218
H -4.21014 -4.01623 -19.5142
O -5.15905 -4.13347 -19.4688
O -3.89195 -4.80337 -19.9562
H 3.19025 5.68012 -15.2554
O 2.94519 4.84889 -14.8489
O 2.3583 6.07164 -15.5215
H 7.85796 9.98087 -19.9931
O 8.26507 -9.14988 -19.8221
O 8.50567 9.5045 -20.5125
H -0.457486 -1.67487 -8.49296
O -1.15333 -1.12408 -8.13426
O -0.88787 -2.19249 -9.17347
H 2.58725 -8.18345 -11.2913
O 3.27257 -7.63363 -10.9115
O 2.02599 -7.57215 -11.7683
H -9.73755 7.04584 -9.35505
O 9.60675 7.40825 -9.62536
O -9.96189 6.25263 -8.86849
H 2.27699 1.42189 -8.10874
O 1.3683 1.65962 -7.92435
O 2.40385 0.588627 -7.65507
H 7.6538 -1.8879 -16.8108
O 7.20529 -2.7283 -16.9046
O 8.50289 -2.11034 -16.429
H 0.283591 9.70138 -16.2639
O 0.931862 9.94278 -15.6023
O 0.600717 -9.87188 -17.0703
H -9.90923 -9.71262 11.9511
O -9.50863 9.4729 12.304
O 9.52124 9.95483 11.4564
H -6.15076 -5.76038 1.13026
O -5.83833 -5.09985 1.74859
O -5.55497 -5.69162 0.38423
H -4.34986 -7.84134 -17.7754
O -3.77641 -8.02375 -18.5198
O -5.21697 -7.72416 -18.1635
H 6.83241 -1.98762 -3.94945
O 7.7263 -1.84229 -3.63949
O 6.33419 -1.24868 -3.6002
H -0.387215 -5.93207 -10.4122
O -0.0387667 -5.08497 -10.1343
O 0.0958183 -6.13951 -11.2121
H -6.39642 7.6153 -18.7882
O -5.52357 7.22429 -18.7498
O -6.98511 6.87444 -18.9325
H -8.19941 8.76724 0.504913
O -9.03293 9.20426 0.679525
O -7.96567 9.04169 -0.381826
H -6.1339 9.8457 -16.977
O -6.43606 9.06405 -17.4395
O -6.00643 -9.48204 -17.6658
H 9.61428 -8.12291 -11.9814
O -9.69236 -7.75167 -12.0216
O 9.03183 -7.36806 -12.0662
H 4.33518 9.36365 -19.3838
O 5.2174 9.09364 -19.6387
O 4.10483 8.77957 -18.6612
H -6.63136 -4.39499 -16.292
O -6.6213 -5.34652 -16.1885
O -5.80304 -4.10338 -15.9111
H 0.44206 5.33678 3.38697
O 0.86957 4.65629 2.86696
O 0.409184 6.09722 2.80654
H -8.40229 1.58668 -0.743672
O -7.93224 0.787193 -0.506788
O -9.32704 1.35821 -0.649533
H -8.55126 -6.46355 -3.78643
O -8.30616 -6.33585 -4.70288
O -7.72519 -6.40407 -3.30653
H -1.09122 5.04477 -7.93404
O -1.02196 4.67149 -8.81274
O -2.03278 5.11609 -7.77712
H 4.32346 -6.36403 -15.7157
O 5.03368 -6.24296 -15.0855
O 4.57535 -7.14098 -16.2148
H 1.68335 -9.5732 -13.4909
O 1.21902 9.59932 -13.2704
O 2.37808 -9.50928 -12.8355
H -9.65852 3.9593 -20.414
O -9.40618 3.04119 -20.3158
O 9.78318 4.06741 -19.8244
H -3.64683 -2.48343 -17.3271
O -4.15984 -2.46079 -16.5193
O -3.8737 -3.32054 -17.7321
H -2.74804 2.957 -9.35081
O -3.53482 3.43114 -9.08174
O -3.03734 2.40452 -10.077
H -5.72764 -7.02731 -6.56153
O -5.13186 -6.87313 -7.29469
O -5.71057 -6.21061 -6.06257
H 6.7163 6.99863 -16.4885
O 6.31246 6.69056 -15.6772
O 6.97621 7.90035 -16.2999
H -3.8371 -3.13821 -6.30397
O -3.80397 -4.07084 -6.09107
O -3.70457 -2.6958 -5.46554
H 0.556728 -3.52149 -11.2582
O 0.847459 -3.18596 -12.1062
O 1.09263 -3.053 -10.6182
H 3.77999 2.24985 0.624245
O 4.45493 2.67867 0.0981154
O 2.96485 2.41644 0.150916
H -3.91454 7.66429 -16.1478
O -4.6308 7.04002 -16.264
O -4.33694 8.45401 -15.8099
H -0.924155 6.03499 -11.3025
O -1.55829 5.36368 -11.5544
O -0.271735 5.56577 -10.7825
H 5.82113 6.12058 -19.2736
O 6.1069 5.93915 -18.3782
O 5.1236 5.48557 -19.4362
H 9.60644 -4.64924 -7.11132
O -9.96735 -4.46483 -7.82195
O 10.0523 -5.3025 -6.57217
H -9.56881 0.979808 -16.6799
O -8.68253 1.13045 -17.0086
O -9.4836 0.225245 -16.0971
H 7.15255 2.66822 3.08842
O 7.2872 3.51273 3.51843
O 6.50957 2.21926 3.63729
H 1.65474 -6.00027 -12.5004
O 1.98679 -5.10435 -12.5578
O 1.4005 -6.21993 -13.3967
H -4.92151 5.45202 -19.0521
O -4.15466 4.94191 -18.7914
O -4.69059 5.81178 -19.9086
H 2.65772 -1.59914 -8.44891
O 2.88449 -2.27156 -9.09131
O 1.701 -1.60803 -8.41975
H 8.10947 -7.38519 6.19482
O 8.91477 -7.70014 5.78428
O 7.8517 -6.62855 5.66824
H -3.1271 7.92306 -18.9225
O -2.25199 7.53531 -18.9155
O -3.49918 7.69102 -18.0716
H -6.16101 -8.43938 1.46186
O -6.71836 -8.47782 0.684588
O -5.98444 -7.50665 1.58465
H -7.20459 8.0529 -9.92246
O -8.13581 7.931 -9.73752
O -6.759 7.70583 -9.14964
H 9.71827 -1.51258 -9.88287
O -9.5438 -1.28867 -9.97637
O 9.49508 -1.24348 -8.99179
H -1.87336 1.83352 -19.3646
O -1.49258 2.63921 -19.714
O -2.81749 1.99088 -19.3732
H -0.469938 7.83676 -19.1086
O 0.058125 7.07332 -19.3422
O -0.580573 8.31289 -19.9316
H 9.31433 4.62743 -8.68682
O 9.6477 3.84897 -8.24061
O 8.39112 4.43394 -8.84948
H 6.41454 -7.43294 -4.00241
O 6.60887 -7.52207 -4.93545
O 6.62558 -8.28929 -3.63043
H -4.50158 -0.605782 -19.1706
O -4.00009 -1.0475 -18.4853
O -3.9529 -0.67488 -19.9519
H -2.76648 -6.00379 -16.2428
O -2.80221 -6.01648 -15.2864
O -3.17237 -6.82876 -16.5091
H 1.15218 -0.513269 -15.4412
O 1.75546 -1.14564 -15.8316
O 0.290308 -0.769681 -15.7694
H -6.31267 -5.53468 -2.80283
O -5.58957 -5.51739 -2.17587
O -5.92778 -5.22251 -3.62178
H 7.64194 4.5252 -15.2947
O 7.39511 4.73875 -14.3948
O 7.38675 5.29526 -15.8028
H 5.41091 -4.32956 -11.3711
O 4.90027 -3.63105 -11.7805
O 5.637 -3.9865 -10.5066
H 1.50246 6.28229 -6.81997
O 1.64194 5.61401 -7.49093
O 1.96796 5.95181 -6.05163
H -10.0872 3.78886 -16.4239
O 10.0754 2.84334 -16.5708
O 9.3635 3.96064 -15.8381
H -8.23088 5.50512 -18.0399
O -9.17687 5.64185 -18.0914
O -8.08088 4.68544 -18.5109
H 3.90667 3.8821 -19.4718
O 3.13494 3.34449 -19.6497
O 4.63227 3.25845 -19.4436
H 5.29024 5.30438 3.80472
O 6.24515 5.35735 3.76509
O 4.98837 5.89038 3.11065
H -0.09374 -0.362058 -19.4483
O -0.638871 0.404036 -19.269
O -0.712044 -1.09139 -19.4931
H 1.48712 0.442976 -2.29123
O 1.74614 1.31113 -1.98227
O 2.31395 -0.00305051 -2.47464
H 1.89304 1.91219 -19.3773
O 1.86169 2.01775 -18.4264
O 1.31669 1.169 -19.5554
H -1.60878 -5.57219 -0.795444
O -0.909621 -5.7417 -1.42686
O -1.86036 -6.43926 -0.477417
H -6.32113 0.111757 -6.59456
O -5.94067 0.990046 -6.5852
O -7.26662 0.259562 -6.5739
H -1.59891 9.15976 -9.00617
O -2.00844 -9.98658 -9.23753
O -0.707317 9.22739 -9.34783
H 7.88805 -2.3427 -12.2065
O 8.8044 -2.19027 -11.9756
O 7.4099 -2.21653 -11.3869
H -1.87537 -2.40626 -19.5882
O -2.64421 -2.72501 -19.1154
O -1.79883 -2.98983 -20.3431
H -2.28662 -3.83757 -9.40534
O -2.05219 -4.06348 -8.50519
O -2.24294 -4.66751 -9.88024
H 6.75518 -9.27746 7.75851
O 6.96149 -8.49262 7.25087
O 7.4653 -9.34391 8.39691
H -6.09481 -3.63248 3.0966
O -5.14412 -3.72405 3.03314
O -6.23116 -2.72271 3.3611
H -3.063 7.20224 -10.2113
O -2.34193 6.72659 -10.6237
O -2.63931 7.92183 -9.74344
H 3.92283 0.0681081 -13.3477
O 4.50555 0.646167 -13.8402
O 3.35836 -0.32656 -14.0125
H -8.38469 -2.09794 -6.59274
O -8.39544 -1.35651 -5.98742
O -7.93441 -1.76683 -7.36983
H 1.04396 -9.73235 -0.653216
O 1.45055 -9.76355 0.212797
O 1.73991 -9.42512 -1.23417
H 0.608628 -6.36538 -2.12317
O 1.29246 -6.99938 -1.90719
O 0.944123 -5.5302 -1.79736
H -6.06793 2.36803 -8.45973
O -6.91612 2.23054 -8.88152
O -5.6501 3.0549 -8.97922
H -0.573158 2.11184 -8.0573
O -1.41154 2.5729 -8.02937
O -0.510654 1.78154 -8.95354
H -9.7223 7.84504 -5.00988
O -9.35495 8.3993 -5.69844
O -9.12747 7.09667 -4.96133
H -1.94436 -3.75871 -3.38792
O -1.33446 -3.4015 -4.03342
O -1.74394 -3.28513 -2.58057
H -4.9825 7.84808 -8.22097
O -4.25321 8.1844 -8.7418
O -5.41102 8.63075 -7.87451
H -2.3784 5.07777 -18.6458
O -2.49292 4.6063 -17.8207
O -1.46254 4.92993 -18.8816
H -7.12369 2.57162 -18.9414
O -7.42542 1.85685 -19.5021
O -6.32968 2.89293 -19.3687
H -9.85809 -5.30039 -12.1764
O -9.00629 -4.92129 -11.9597
O 9.78165 -5.10944 -11.4153
H -9.78086 -5.84235 6.10689
O -9.28336 -5.2243 5.5714
O 9.59337 -5.97923 5.62183
H -6.29046 -9.79991 -7.27553
O -6.46015 -9.47695 -8.1605
O -5.85408 -9.07145 -6.83377
H 0.341611 -1.60678 7.82223
O 0.117461 -2.50406 7.57549
O -0.496679 -1.1449 7.83512
H -9.42329 -8.65227 -16.5472
O -9.85105 -9.41438 -16.9377
O -8.49013 -8.86451 -16.5669
H -8.28843 -9.21908 -13.149
O -7.75261 9.9845 -12.9869
O -9.10077 -9.56168 -13.5218
H 1.09859 9.66792 -9.95349
O 1.43097 9.3969 -9.09773
O 1.81081 -9.7998 -10.3363
H -1.82714 8.03577 -13.8579
O -2.37515 8.80582 -14.0094
O -1.03434 8.38221 -13.4484
H -6.87612 0.0542577 -18.1625
O -5.98978 -0.284939 -18.2874
O -6.76113 1.00073 -18.0776
H -9.75115 -4.26084 -20.1154
O -9.76632 -4.98275 -19.487
O -8.87286 -4.29128 -20.4948
H -8.49682 -0.134258 -14.3164
O -9.44837 -0.232868 -14.2836
O -8.16462 -1.03001 -14.3757
H -3.99456 3.41414 -16.1865
O -3.77069 2.81628 -15.4732
O -4.77191 3.87816 -15.8756
H 0.346348 -3.38097 2.04925
O 0.873368 -3.02482 1.33395
O 0.951889 -3.43752 2.78843
H 4.14825 7.88804 -17.3032
O 5.02099 7.49489 -17.3024
O 4.18725 8.56025 -16.6229
H 3.7408 -4.56969 -18.9889
O 3.15121 -5.26724 -19.2753
O 3.19143 -3.78624 -18.964
H 5.19768 9.85456 -15.5804
O 5.35112 -9.46241 -14.9073
O 5.30736 -9.65713 -16.408
H -4.37284 -8.58739 -15.0224
O -3.41903 -8.60388 -15.1012
O -4.68883 -8.92111 -15.8621
H 0.658268 -7.23669 -14.6606
O 0.211576 -7.2303 -15.5072
O 1.00592 -8.12482 -14.5794
H 9.46633 8.39594 2.63989
O -9.97261 7.97786 3.06458
O 9.61098 8.25425 1.70433
H 4.15631 9.16682 -12.5709
O 3.34508 8.68301 -12.4157
O 4.34052 9.03451 -13.5009
H -8.51951 -3.68143 -10.0119
O -8.00447 -2.87616 -9.96184
O -9.42428 -3.38239 -10.1025
H -9.07195 -2.78322 -17.0199
O -9.68628 -3.4844 -16.8027
O -8.80989 -2.42277 -16.1727
H 5.69869 -3.61347 -16.9369
O 4.89209 -3.90733 -16.5134
O 5.49595 -3.62309 -17.8723
H 0.626793 6.90459 -16.4522
O -0.0752263 7.53467 -16.2897
O 1.03072 7.20044 -17.268
H 7.82049 9.55466 -17.0396
O 8.0025 9.71732 -17.9652
O 7.76717 -9.55327 -16.6486
H 2.74687 6.17333 -11.9465
O 1.84915 5.88692 -12.1147
O 3.02737 5.65371 -11.1931
H -3.5144 -1.01756 -8.13638
O -3.88567 -1.7189 -7.6011
O -3.11911 -0.417 -7.50446
H 5.08278 4.95321 -11.2626
O 4.65064 4.28867 -10.7261
O 5.99197 4.65978 -11.3219
H 5.93261 -1.85926 -19.4072
O 5.24202 -1.19954 -19.4712
O 6.60333 -1.4522 -18.8588
H 5.67044 6.22937 -13.9869
O 4.84587 5.88232 -14.3273
O 5.592 6.14556 -13.0366
H -0.654178 7.96736 2.65745
O -0.790316 7.51737 1.82365
O -1.50149 7.91483 3.09966
H 1.80764 -6.5311 -19.1538
O 2.50968 -7.18123 -19.1273
O 1.21621 -6.78752 -18.4462
H -1.57987 -9.06693 -18.6041
O -0.988759 -9.8187 -18.5633
O -2.41407 -9.4332 -18.8977
H -0.634119 6.29682 0.430538
O -0.587047 6.92593 -0.289367
O -1.51681 5.93117 0.372376
H 9.83422 9.36522 -2.44616
O 9.68191 -9.86211 -3.01758
O 9.70782 8.60423 -3.01286
H -6.65773 3.144 -5.21061
O -6.09529 3.7849 -5.64552
O -7.12173 3.64695 -4.54129
H 2.21601 -4.93896 -16.0738
O 3.10791 -5.28474 -16.0393
O 1.6661 -5.66332 -15.7752
H -8.0354 -5.30724 -8.12165
O -8.33978 -4.77943 -8.85991
O -7.51109 -6.0006 -8.52239
H -3.05958 -7.47816 1.88715
O -3.44399 -8.34469 1.7545
O -2.12887 -7.64818 2.0324
H 2.00622 3.62622 -13.6422
O 2.29758 3.02409 -12.9576
O 1.24843 3.19362 -14.0358
H -6.03769 -1.43301 5.51148
O -6.07564 -1.98393 6.29333
O -5.48282 -0.695215 5.76449
H -3.85496 -9.08476 -9.70978
O -3.67005 -8.19031 -9.42343
O -4.23657 -8.98354 -10.5818
H 4.44606 -6.40145 -5.67069
O 3.80903 -6.0725 -5.03647
O 5.27206 -6.43099 -5.18789
H 0.370897 4.11507 -10.0367
O 0.169795 3.23268 -10.3485
O 1.21543 4.02685 -9.59492
H -2.14088 -1.35296 -11.0837
O -2.11947 -2.22656 -10.693
O -1.58994 -1.42503 -11.8631
H -6.77185 -2.87699 -18.802
O -7.26837 -3.00221 -17.9933
O -6.93732 -1.96651 -19.0467
H 4.1213 -7.99847 -19.4616
O 4.70887 -7.57719 -20.0889
O 4.41724 -8.90819 -19.4291
H -8.5414 2.11866 -9.59824
O -8.53536 3.07524 -9.63217
O -8.8547 1.91173 -8.71774
H -5.62574 -1.49661 -12.3269
O -5.28392 -0.767252 -11.8097
O -6.57665 -1.39497 -12.2859
H 7.40433 -2.86435 -6.83447
O 7.40978 -2.69506 -5.89235
O 8.25028 -3.27679 -7.00909
H -2.325 -6.38145 -19.4562
O -1.83407 -7.15595 -19.1816
O -2.08095 -5.70588 -18.8235
H -7.82289 9.85325 -19.9658
O -8.74328 9.59101 -19.9844
O -7.33904 9.02827 -19.9265
H 0.0648831 4.37284 -19.6599
O 0.664299 4.90491 -19.1366
O 0.412052 4.42575 -20.5504
H -9.88652 8.42673 -21.047
O 9.78084 8.19936 -21.8174
O -9.99382 7.68124 -20.4562
H -3.74561 -5.51225 -4.6926
O -3.16149 -6.27046 -4.68074
O -3.53585 -5.03513 -3.88971
H 6.23405 6.47347 -8.13987
O 6.96409 7.07726 -8.00305
O 5.65459 6.93158 -8.74864
H -5.86783 -4.60106 -11.9822
O -5.90687 -5.53576 -11.7796
O -5.43873 -4.20842 -11.222
H -3.69699 2.73048 -6.00773
O -3.53539 3.4005 -5.3435
O -4.17173 3.18923 -6.70085
H 7.83242 0.046308 -18.6623
O 8.70684 0.119542 -19.0448
O 7.94762 -0.533235 -17.9093
H 2.69364 -3.28791 -13.2447
O 2.12444 -3.17556 -14.006
O 3.57545 -3.35136 -13.6116
H 6.01759 -8.08982 -13.702
O 5.07224 -7.94039 -13.6873
O 6.39144 -7.2393 -13.9324
H -4.52226 -2.06494 0.538817
O -4.85493 -2.22444 1.42208
O -3.60121 -2.32237 0.579158
H 1.92402 -3.50957 -6.37908
O 2.53988 -3.88007 -5.74687
O 2.27799 -3.75819 -7.23299
H 8.74663 7.17918 -18.7024
O 7.91249 7.41227 -18.2948
O 8.63625 6.26685 -18.9702
H -7.2158 -7.64218 -18.3468
O -7.95814 -7.0385 -18.3741
O -7.49405 -8.38887 -18.8771
H -4.42548 5.65621 -6.48961
O -3.8026 6.01585 -5.858
O -4.62791 6.38915 -7.07104
H -7.19011 8.14515 -12.6464
O -6.23616 8.07666 -12.6855
O -7.3996 8.05114 -11.7171
H -2.34836 5.43794 -14.8209
O -2.10238 6.34666 -14.6478
O -2.95589 5.49015 -15.5588
H 2.72337 -4.52739 -9.40996
O 2.64525 -4.97096 -10.2546
O 2.56387 -5.21417 -8.76254
H 9.44307 2.3719 -11.2521
O 8.86235 1.79778 -10.7527
O -9.96108 2.45193 -10.7085
H 8.84019 -7.23429 -19.2874
O 7.96275 -7.07556 -18.9393
O 9.33638 -6.44961 -19.0543
H 4.25691 -9.23138 1.65213
O 3.81857 -9.17586 2.50126
O 4.73693 -8.40679 1.57548
H 7.78556 6.19764 -4.99154
O 7.13574 6.63162 -5.5444
O 8.54304 6.78264 -5.00717
H -7.34952 9.07123 5.10604
O -6.77252 8.76179 4.40777
O -7.52952 9.98419 4.88168
H -4.63647 2.50645 -0.864074
O -4.79668 2.32336 -1.78986
O -3.75273 2.87349 -0.841464
H 4.21532 0.559665 2.46989
O 3.36191 0.152012 2.61734
O 4.04938 1.23128 1.80834
H -2.57946 -3.80593 5.35455
O -3.00997 -4.04445 6.17554
O -2.82513 -4.50096 4.74397
H -1.37502 3.52353 -2.44169
O -1.08741 3.00013 -3.18974
O -1.12875 3.00401 -1.67638
H -9.18486 -5.68573 -17.9098
O -9.31176 -6.05691 -17.0366
O -8.38844 -5.16021 -17.8337
H -4.20604 -9.79423 -19.7302
O -4.83926 9.87164 -20.3757
O -3.77066 9.39342 -19.4158
H -0.453235 -8.9076 -5.6933
O -1.20101 -9.37557 -5.32171
O -0.453552 -9.15123 -6.619
H 6.58367 -2.00933 -9.76644
O 6.73307 -2.79617 -9.24222
O 6.79568 -1.28494 -9.17776
H 6.22362 -5.46254 -14.0783
O 6.62526 -4.6704 -14.4353
O 5.73692 -5.16021 -13.3115
H 2.92387 -4.61603 -3.85073
O 2.71102 -4.25849 -2.98868
O 2.22927 -5.25106 -4.02534
H -2.88555 8.65115 -2.14141
O -2.51937 7.77577 -2.01555
O -2.24232 9.23949 -1.74599
H -4.5568 -6.29839 -9.49198
O -4.70168 -5.35795 -9.59598
O -3.85406 -6.36288 -8.84526
H -1.81357 4.01076 11.0152
O -2.69576 3.74595 10.7547
O -1.90766 4.92346 11.2879
H 8.32514 8.78539 5.18264
O 8.66008 8.78269 4.28594
O 9.05398 8.4617 5.71205
H -3.30984 7.13826 10.4647
O -2.36862 7.05376 10.617
O -3.47234 6.62294 9.67458
H -5.05869 -3.55775 -9.55194
O -4.20248 -3.14372 -9.66021
O -5.56578 -2.92948 -9.03778
H -9.37044 -9.3571 -9.84143
O -9.96046 -9.09525 -10.5482
O -8.7084 -8.66635 -9.81317
H -0.299185 -2.41481 -5.05611
O -0.516559 -1.89078 -5.82708
O 0.514777 -2.86057 -5.29065
H -9.52983 2.24228 8.02691
O -9.12767 2.88879 8.60703
O -9.89829 1.58575 8.61806
H -0.237182 -8.22037 -8.49276
O 0.0545085 -7.43498 -8.9557
O 0.439844 -8.87193 -8.67536
H 1.49538 2.73992 5.21506
O 2.07453 3.42919 4.88989
O 2.07996 2.12357 5.65621
H 4.91752 0.503144 -10.2501
O 4.15961 0.634152 -10.8199
O 5.40416 -0.212638 -10.6588
H 2.46825 -6.42512 2.74929
O 2.28808 -5.72243 3.3738
O 2.48793 -7.22026 3.28183
H -2.80604 9.81736 -4.70073
O -2.95116 9.15342 -4.02666
O -3.58804 -9.61165 -4.66716
H -3.5433 -4.7501 2.56373
O -3.08963 -4.31083 1.84436
O -3.35025 -5.6791 2.43751
H -7.00106 7.74928 8.01618
O -7.47738 7.50588 8.81
O -7.04714 6.97121 7.46055
H 7.24104 -7.06529 10.8809
O 6.39826 -6.81235 10.5041
O 7.31673 -8.00086 10.6932
H -5.99913 0.0900019 -0.581552
O -5.42422 0.852883 -0.642558
O -5.44661 -0.597806 -0.210235
H -5.68252 2.30052 1.86037
O -6.60449 2.51628 2.00054
O -5.49654 2.60711 0.972856
H -8.55799 -2.48085 1.25374
O -7.69609 -2.62782 1.64329
O -8.95241 -1.7968 1.79481
H 9.48638 5.28979 6.51279
O 9.84463 4.66579 7.14408
O 9.66258 6.14835 6.89758
H -6.82471 5.39973 1.58814
O -6.45736 5.46383 0.706542
O -7.69989 5.03473 1.45749
H 5.49978 -2.64743 -13.5793
O 5.11882 -1.84423 -13.9342
O 6.38784 -2.39887 -13.3228
H 4.75148 7.95548 -5.68749
O 4.71909 8.88719 -5.90451
O 5.25951 7.91532 -4.87721
H -7.37935 -9.05805 -1.74258
O -8.05499 -8.49908 -1.35877
O -7.71142 -9.27167 -2.61457
H 4.67459 -6.27798 10.6248
O 4.39658 -7.09525 10.2113
O 3.8599 -5.86362 10.9091
H -0.0299622 -4.37107 7.61156
O 0.601652 -5.01993 7.92183
O -0.437562 -4.7791 6.8476
H 3.1933 3.52407 -2.10725
O 2.53177 3.91808 -1.53859
O 3.99981 3.55223 -1.59249
H 3.28811 -8.13636 -2.00376
O 3.70914 -8.97534 -1.81644
O 3.92663 -7.66075 -2.5351
H 2.54083 4.97223 -4.58518
O 2.09064 4.28061 -5.07018
O 2.84815 4.54404 -3.78614
H -3.06508 -1.57978 8.01663
O -3.09548 -2.22271 7.30813
O -3.74502 -1.86363 8.62765
H 9.90365 -8.14809 4.33789
O -9.62582 -7.81038 4.94496
O -10.0684 -7.74117 3.49882
H 6.85125 1.00204 8.21702
O 7.15896 1.84508 7.88412
O 7.58201 0.40279 8.06498
H -9.65241 2.54689 -4.16263
O 9.80684 2.93239 -4.64899
O -9.31253 3.26577 -3.62976
H 5.65509 9.08955 4.04263
O 5.65166 8.51019 3.28066
O 6.50139 8.93104 4.46084
H 1.91133 9.90165 12.1082
O 1.13381 9.81772 11.5562
O 1.61768 9.63333 12.9788
H 6.98803 -4.73778 -1.89299
O 7.75594 -5.02383 -2.3877
O 6.36889 -5.46371 -1.96997
H 6.51067 7.52253 1.47737
O 6.7272 6.61018 1.28509
O 6.92117 8.02069 0.770557
H -6.64993 -4.30583 -5.94697
O -7.2165 -4.15379 -6.70337
O -6.26126 -3.45076 -5.76251
H -10.0525 8.01933 7.4169
O -9.31381 8.62401 7.34629
O 9.48076 8.49858 7.92467
H -1.69359 -9.07176 -0.731065
O -2.17573 -9.57825 -0.0774157
O -0.819646 -9.46211 -0.740344
H -5.74893 0.451682 10.2763
O -5.83939 -0.495653 10.3793
O -5.61057 0.578932 9.33772
H -5.05561 4.23455 4.37374
O -4.12121 4.39664 4.5036
O -5.11107 3.30121 4.16874
H -7.30316 6.33938 10.6209
O -6.75231 5.62727 10.946
O -8.17088 6.15486 10.9804
H -4.19662 1.38833 4.25235
O -3.57038 0.675019 4.12888
O -4.66215 1.44608 3.41796
H -8.92978 4.65369 -2.39711
O -8.63505 3.81495 -2.04231
O -8.16936 4.99601 -2.86702
H 8.90594 1.2364 -1.92803
O 8.95323 0.546656 -2.59005
O 8.82693 2.04689 -2.43114
H -6.14177 8.29895 -4.75938
O -6.09818 8.97229 -5.43832
O -6.11239 8.78613 -3.93594
H 5.77571 -7.73257 4.59172
O 6.54202 -7.88939 5.14346
O 5.58845 -8.58277 4.19379
H -0.544743 9.29229 10.413
O -0.527465 9.30942 9.45606
O -0.556191 8.36155 10.6362
H 2.9825 -5.34472 0.248992
O 2.51001 -5.39293 1.08007
O 3.88625 -5.56618 0.473559
H 4.71377 -0.590424 -0.376378
O 5.41156 0.0177471 -0.132548
O 5.1638 -1.3018 -0.832073
H -9.44558 8.41292 -14.3146
O -9.60768 8.49064 -15.2548
O -8.55691 8.06272 -14.2525
H -1.71884 7.27456 7.24035
O -1.59956 8.11431 6.7967
O -0.886825 7.11895 7.68731
H -7.24138 5.67867 -7.89008
O -6.31321 5.58099 -8.10264
O -7.69577 5.50789 -8.71508
H 4.38459 -2.17076 10.8738
O 4.0843 -3.0697 11.0079
O 3.58942 -1.68082 10.6643
H -5.65189 4.23042 10.9063
O -5.77377 4.28723 9.9586
O -4.98663 3.55207 11.0225
H 1.96119 -4.68515 5.06681
O 2.21795 -3.78505 5.26713
O 2.65335 -5.22329 5.45094
H 2.53114 9.30991 7.58375
O 2.29058 8.93987 6.73436
O 2.42586 -9.72524 7.47238
H 2.62724 -4.56329 10.6795
O 1.78078 -4.72776 11.0951
O 2.42244 -4.00189 9.93173
H -9.08393 7.0475 4.28375
O -8.87757 7.51177 5.09499
O -8.40648 6.37496 4.21314
H -5.61005 1.55613 7.83574
O -5.763 1.68146 6.89917
O -6.22292 2.1557 8.26135
H 10.065 -1.07861 3.97841
O 10.0707 -1.79044 4.61834
O 9.55079 -0.386429 4.39402
H -4.70553 4.86392 -9.62097
O -4.38358 5.76405 -9.66942
O -4.78215 4.58697 -10.534
H 7.37735 1.51403 -9.40205
O 6.6438 1.26096 -9.96251
O 6.97938 1.68488 -8.54841
H -0.175558 -2.21598 10.6658
O -0.272754 -3.01704 11.1807
O -0.199325 -2.51133 9.75564
H -4.33083 -8.1567 5.39959
O -3.66811 -8.6939 4.96547
O -4.0093 -8.05646 6.2956
H 2.60399 6.84127 2.05493
O 2.74303 6.3301 1.25766
O 2.7216 7.7507 1.78047
H 4.62315 -6.77104 -10.0514
O 5.4123 -7.30286 -9.94828
O 4.9495 -5.89303 -10.2484
H 4.47532 5.15447 -6.68357
O 4.39699 5.57919 -5.82932
O 5.15479 5.65265 -7.13787
H 9.73618 1.25633 5.46948
O 9.97181 1.73432 6.26463
O 8.95467 0.759206 5.71102
H 9.37205 -0.686397 -4.01533
O 9.86579 -1.23605 -3.40676
O 10.0419 -0.210933 -4.5068
H -2.96954 9.46993 1.2818
O -3.82728 9.12485 1.03395
O -2.88633 9.26062 2.21214
H 0.722038 5.04129 6.36223
O 0.505547 4.23628 5.89176
O 0.210403 5.7208 5.92322
H 1.27795 -6.73415 -5.08327
O 0.854587 -7.34359 -5.68792
O 0.646431 -6.62371 -4.37247
H -3.40519 5.39424 8.42317
O -3.4251 4.59751 7.89301
O -2.68891 5.91057 8.0536
H 4.8199 -3.13212 -2.01432
O 5.72056 -3.37739 -2.22616
O 4.54519 -3.77175 -1.35731
H -6.82252 -7.08506 10.6441
O -6.79676 -7.48897 11.5116
O -6.75186 -7.82001 10.035
H 5.43958 7.52074 6.66154
O 5.9906 8.29553 6.55062
O 5.59079 7.00347 5.87045
H 9.36377 -2.28689 -1.74821
O 8.64595 -2.2963 -1.11505
O 9.65447 -3.19768 -1.79498
H 7.88263 -6.72607 -6.36214
O 8.57887 -7.30954 -6.66386
O 8.06267 -5.89262 -6.79709
H 9.54335 -8.04915 -3.39748
O 8.84701 -7.51349 -3.77751
O -9.87786 -7.47624 -3.3905
H 0.0581324 1.85776 2.89736
O -0.650737 2.32126 2.45137
O 0.486084 2.52859 3.42942
H 3.59084 6.17726 10.7785
O 4.42955 5.72615 10.6821
O 3.01349 5.52739 11.1792
H -3.88043 0.752929 -10.5971
O -4.13973 0.584408 -9.69121
O -3.43193 -0.0470646 -10.8711
H 1.08228 9.97092 2.27601
O 1.6661 -9.9266 3.03007
O 0.542166 9.20567 2.47327
H 8.07462 3.25434 -5.1547
O 7.74147 4.14504 -5.04568
O 7.71107 2.96278 -5.99081
H 1.0082 7.20021 8.48597
O 1.67645 7.88542 8.49888
O 1.48685 6.4024 8.26096
H 2.70545 7.73055 5.14036
O 3.34463 7.5148 5.81944
O 2.96339 7.19594 4.38942
H -6.28188 -2.13524 8.16588
O -6.38479 -3.08685 8.15729
O -6.7713 -1.84788 8.93669
H -2.05855 0.0685296 10.7687
O -1.77943 0.274286 9.87652
O -2.56697 -0.73775 10.6812
H 7.92947 -1.67143 8.20008
O 8.07918 -2.5965 8.00497
O 8.76739 -1.35961 8.54198
H -2.52968 0.234398 0.6508
O -2.84367 -0.300807 -0.0780461
O -3.16908 0.089106 1.34816
H -7.89686 2.326 11.1719
O -7.28958 2.79094 11.7475
O -7.36838 1.63414 10.7741
H 4.12026 -8.29466 8.81198
O 3.53894 -9.03312 8.99358
O 4.9949 -8.68164 8.77326
H -0.937428 2.35686 0.0598488
O -1.55364 2.9548 0.482919
O -1.32009 1.48868 0.186569
H -2.09564 4.08725 2.12011
O -2.93304 4.54791 2.06733
O -1.6514 4.4821 2.87044
H 3.52729 -1.05435 -2.97096
O 3.02094 -1.40161 -3.70531
O 4.23258 -1.68898 -2.84434
H -4.50669 -4.76875 -0.890491
O -4.37056 -3.82215 -0.849864
O -3.62556 -5.13486 -0.966714
H -2.38786 4.47896 5.17376
O -2.72258 4.31462 6.05537
O -2.00861 3.64335 4.90142
H -0.355185 -7.5659 2.56935
O 0.163038 -8.29807 2.23527
O -0.233248 -6.87079 1.92266
H 1.41725 -7.72933 10.8667
O 1.8647 -8.43806 11.329
O 0.545968 -8.0781 10.6784
H 0.774747 3.44333 -5.85921
O 0.145192 3.24373 -5.16634
O 0.363676 3.11497 -6.65888
H 4.45476 8.85382 9.66921
O 4.03422 8.34361 10.3614
O 3.91818 8.6933 8.89296
H 4.87185 -9.00953 -6.48968
O 4.6635 -8.75766 -7.38935
O 4.80217 -8.19583 -5.99039
H 7.06205 0.945679 0.417011
O 7.65468 1.24539 -0.272346
O 7.24488 1.52288 1.1584
H 7.34826 -1.94894 0.38291
O 7.29828 -0.99356 0.414414
O 7.27633 -2.22329 1.29714
H 7.40223 9.97164 -4.59888
O 6.86177 9.88858 -5.38454
O 7.0293 9.34065 -3.98322
H 7.50888 4.11847 -12.3806
O 7.94192 3.30244 -12.13
O 8.22668 4.72514 -12.5622
H 9.81932 -8.43061 -6.06556
O -9.83883 -9.0355 -6.58481
O 9.68572 -8.88289 -5.23258
H -7.19569 -8.30297 4.78325
O -7.55512 -7.80674 4.04785
O -6.32568 -7.92899 4.92276
H 3.87903 -6.30437 6.1767