1422
Atoms. Timestep: 40000
H -3.84223 -2.76202 -13.2781
O -4.57162 -2.72096 -13.8964
O -4.10269 -2.1838 -12.5613
H 7.30487 -1.1915 -10.1255
O 7.4944 -0.424491 -10.6658
O 6.86067 -1.79839 -10.7175
H 5.56251 6.52725 -6.39495
O 5.70731 6.6343 -7.33481
O 5.3153 7.4 -6.08937
H 4.81089 -0.858178 -13.1584
O 4.74569 -0.841548 -14.1129
O 5.46913 -1.52833 -12.9744
H -2.97142 -3.94368 -7.20854
O -3.09691 -3.76062 -8.13941
O -3.19192 -4.87035 -7.11432
H 6.99774 -7.65374 -12.2533
O 7.62816 -8.32292 -12.5197
O 6.21833 -7.83567 -12.7782
H -6.17956 9.31675 -6.42359
O -5.9533 8.387 -6.44777
O -6.23003 9.5273 -5.49144
H 9.61206 2.53413 -1.66984
O 9.50132 2.30129 -2.59143
O 9.2746 3.42758 -1.60579
H -1.43937 -3.5881 -14.2072
O -1.04845 -2.98618 -14.8404
O -2.29254 -3.20371 -14.0058
H 6.12142 -3.08165 -11.7868
O 7.06648 -3.23264 -11.7697
O 5.73999 -3.95625 -11.8631
H -1.46895 -7.79163 -9.93056
O -2.1493 -8.44885 -10.0769
O -1.6031 -7.14825 -10.6263
H 4.42599 -0.109283 -6.62385
O 3.92408 -0.496787 -7.34072
O 5.33045 -0.372028 -6.79455
H -3.24778 -5.98026 16.8829
O -2.62579 -5.30504 17.1538
O -2.98966 -6.75725 17.3786
H -2.36641 2.64407 -12.7005
O -3.23672 2.39516 -13.0116
O -1.93417 1.81246 -12.5061
H 6.35721 -2.06636 -7.71622
O 6.50767 -1.70193 -8.58822
O 7.13274 -2.59964 -7.54193
H 7.99171 1.45651 -11.2468
O 8.48213 1.63843 -10.4453
O 8.59254 0.939801 -11.7835
H 9.68229 -6.44706 -0.198428
O 10.0842 -5.63021 0.0972048
O -9.83835 -6.85761 -0.748108
H -5.55031 -2.29983 -8.65546
O -6.23516 -1.91637 -8.10772
O -4.78551 -1.7434 -8.50821
H 6.32091 -8.67022 -1.87908
O 7.26671 -8.55513 -1.97092
O 6.16033 -9.57099 -2.16017
H 7.42423 4.16092 -12.4795
O 6.74037 4.73006 -12.1265
O 7.35034 3.35321 -11.9713
H 1.97763 6.44391 -5.24638
O 2.83761 6.14468 -4.95128
O 1.45733 6.50642 -4.44559
H -1.95105 -1.26515 5.88309
O -1.65889 -0.393174 6.1486
O -1.60677 -1.37395 4.99683
H -7.63289 -8.97732 -14.4425
O -7.01377 -8.33812 -14.09
O -8.17188 -9.22846 -13.6926
H 9.31088 1.55749 -15.8754
O -9.97137 1.78189 -15.6622
O 9.16391 0.716163 -15.4433
H 0.882829 8.25871 -17.4843
O 0.401333 7.5594 -17.0424
O 0.326607 8.50254 16.8361
H 5.3016 -7.97314 -8.20631
O 5.20503 -8.53758 -8.97313
O 4.65027 -8.29888 -7.58526
H -7.3762 0.533924 -8.46835
O -7.00277 0.707139 -9.33229
O -7.02288 1.2272 -7.91103
H -6.21959 -0.272448 -14.5033
O -6.11033 -0.972009 -15.1473
O -6.31073 -0.728598 -13.667
H -5.65371 -0.578817 2.02177
O -4.903 -0.137701 1.62428
O -5.34842 -1.47102 2.18608
H 4.6355 2.19901 10.8932
O 4.26526 2.04054 11.7614
O 4.59455 3.14915 10.7847
H 6.61606 -9.94242 12.9028
O 6.61449 -9.58273 12.016
O 5.75234 9.63681 13.0007
H 7.39171 -2.08637 -4.34812
O 7.04175 -1.88209 -3.48116
O 6.74317 -2.67361 -4.73631
H 9.09565 -9.19747 -12.9463
O 10.0159 -9.1683 -12.6845
O 9.05246 -9.9014 -13.5933
H 0.126843 -5.82748 -14.6925
O 0.894623 -5.65541 -15.2375
O -0.0819041 -4.98078 -14.2979
H 2.59353 4.22807 9.21337
O 2.44504 5.17165 9.27536
O 2.34234 4.00397 8.31755
H -4.7938 -6.98064 -4.543
O -4.2471 -6.28077 -4.18598
O -4.39663 -7.787 -4.21404
H -8.58422 5.63908 -14.5319
O -8.13356 6.4222 -14.8479
O -8.24227 4.92949 -15.0757
H -0.683163 2.45503 -3.46944
O -1.34188 1.80282 -3.708
O -0.741413 3.11784 -4.15738
H 3.13671 8.68441 -3.12171
O 3.96227 8.52193 -3.57797
O 3.16364 8.10223 -2.36258
H 0.638712 5.68539 -14.7549
O 1.48445 6.09959 -14.5835
O 0.00641467 6.4025 -14.7082
H 9.35511 8.81619 -0.993541
O 8.50382 8.41013 -1.15675
O 9.41778 8.86706 -0.0399981
H -2.35518 -1.97572 -5.55188
O -2.54128 -2.57531 -6.27425
O -1.39973 -1.95368 -5.49834
H 5.46718 6.07436 -9.04723
O 6.05317 6.69879 -9.47483
O 5.72858 5.2222 -9.39602
H 0.199937 4.39613 -8.83035
O 0.167809 4.04507 -9.72003
O 1.11394 4.65185 -8.70612
H -7.71426 -5.71086 -15.5468
O -8.03828 -5.61483 -14.6515
O -8.01087 -6.57978 -15.8174
H 0.581245 6.75267 14.206
O 1.34279 6.50224 13.6831
O 0.366764 5.96707 14.7089
H -4.72261 -2.76942 -2.95595
O -4.66501 -1.86336 -2.65279
O -4.99169 -3.26476 -2.18255
H -6.42908 6.52806 -6.58958
O -6.89144 5.81555 -6.14836
O -6.07725 6.1292 -7.38522
H -4.13425 -8.43195 5.73187
O -3.53219 -8.94578 6.26999
O -4.16297 -8.89537 4.89504
H 2.22415 0.632071 -5.1825
O 1.81847 1.14075 -5.8844
O 2.98459 0.2204 -5.59286
H -7.39941 8.04152 -14.8869
O -6.93912 7.67343 -15.6409
O -7.36 8.98854 -15.0204
H -8.89772 7.69441 13.3322
O -9.61999 7.15692 13.0073
O -8.28297 7.73859 12.6001
H 5.4863 6.37187 -12.1923
O 5.36096 6.66603 -13.0943
O 5.63328 7.17684 -11.6958
H -6.18912 -8.50423 -7.9033
O -6.37552 -9.28346 -7.37971
O -6.51784 -7.77627 -7.37595
H -0.946754 9.06991 -0.727376
O -1.46733 8.35592 -1.0953
O -1.40124 9.86561 -1.00395
H -7.68918 9.65604 0.884662
O -7.06961 9.14377 0.365239
O -8.52881 9.21297 0.762448
H -3.72277 0.12075 -9.59617
O -2.91776 0.638286 -9.57775
O -3.44547 -0.743634 -9.8997
H -4.06073 8.55658 -3.10455
O -3.56924 8.8939 -3.85329
O -4.97408 8.76103 -3.30508
H 1.078 -8.63756 -0.433464
O 1.19497 -8.43731 -1.3619
O 0.655596 -9.49647 -0.424525
H -8.77917 4.2543 5.66699
O -7.92647 3.89163 5.90696
O -8.77298 4.26886 4.71017
H -5.07557 5.81644 -9.87962
O -4.87242 5.44418 -10.7375
O -5.10126 5.06219 -9.29098
H -8.36758 3.19509 -0.081505
O -9.11221 3.08317 -0.672312
O -8.56583 2.62874 0.664071
H 3.23774 3.40744 -8.8711
O 3.11259 4.31518 -8.59443
O 3.17673 3.43705 -9.82564
H 7.12126 3.92762 -9.73075
O 7.28093 3.23073 -9.09446
O 7.92174 4.45232 -9.71798
H 2.85227 -2.96115 -4.29576
O 2.37661 -3.47937 -4.94476
O 3.77506 -3.09066 -4.51461
H -5.11203 -7.92117 -16.7162
O -4.54964 -7.324 -16.223
O -4.56993 -8.69663 -16.8611
H 1.07404 9.04859 -5.81042
O 1.49908 8.19333 -5.74636
O 1.7547 9.63007 -6.14919
H 0.491458 -2.40664 13.154
O -0.375713 -2.02189 13.2813
O 0.371769 -3.33682 13.3454
H -0.581335 8.14816 -9.35259
O -0.188017 7.37385 -9.75497
O -0.869017 7.85015 -8.48988
H 7.80159 4.46012 13.8244
O 8.30698 3.64769 13.7967
O 7.04981 4.25622 14.3806
H 1.86892 -7.50838 1.67493
O 1.41957 -8.06819 1.0419
O 1.92297 -6.65495 1.24494
H -5.05331 2.80265 3.08624
O -5.4683 3.65931 3.18697
O -4.6772 2.8202 2.20642
H 5.13196 -5.51449 -11.5503
O 5.75349 -6.19427 -11.29
O 4.34653 -5.69711 -11.0347
H 6.56001 8.21574 -10.4692
O 6.4815 9.12666 -10.1859
O 7.50144 8.04277 -10.463
H 0.370058 -4.4235 -9.77286
O -0.32195 -4.02041 -9.24871
O 0.436749 -5.31699 -9.43612
H -4.10417 -6.38214 -7.09482
O -4.52591 -6.61421 -6.26768
O -3.99857 -7.21613 -7.55245
H 1.40499 2.00737 -7.5064
O 0.875649 2.80411 -7.5415
O 2.02016 2.09568 -8.23422
H 1.44274 0.588089 -2.48069
O 1.9547 0.52741 -3.28698
O 0.743953 1.20914 -2.68611
H 6.28557 4.63987 -4.58861
O 6.17031 5.06601 -5.43772
O 6.12059 3.71287 -4.76081
H -1.75586 7.13076 -16.6296
O -1.72367 7.84605 -15.9945
O -2.27283 6.45013 -16.1987
H -6.43118 5.05214 2.84122
O -6.28638 5.98833 2.97834
O -7.37443 4.93594 2.9553
H 0.78263 -8.74962 16.6338
O 0.17213 -8.39572 17.2803
O 0.377132 -9.56639 16.3428
H -1.7517 5.09284 -11.0877
O -2.08729 4.40151 -11.6583
O -1.48549 4.63684 -10.2895
H -1.43798 9.13308 -14.8652
O -1.39455 8.88103 -13.943
O -1.10208 -9.95082 -14.8852
H -2.48788 2.54441 -6.76877
O -2.25962 1.91719 -7.45468
O -2.55649 2.01593 -5.97384
H 4.00777 -2.17058 11.701
O 4.16461 -3.11415 11.737
O 4.88126 -1.78436 11.6373
H -8.55856 -9.32745 -11.4834
O -8.24863 9.86892 -11.0295
O -7.89283 -8.66464 -11.2998
H -3.95204 -8.98527 -9.43709
O -4.01526 -9.91975 -9.23973
O -4.77829 -8.61736 -9.12382
H 5.73066 -1.79765 -2.10669
O 5.4782 -1.57679 -1.21042
O 5.00996 -2.3364 -2.43307
H -2.7931 0.57523 -4.63045
O -2.56568 -0.277409 -5.00118
O -2.82179 0.425971 -3.68564
H 8.40635 -0.0715608 -5.86299
O 7.86213 -0.54603 -5.23471
O 9.09416 -0.692872 -6.10191
H -6.24621 6.75016 -17.0052
O -5.59909 6.15728 -17.3872
O -6.39717 7.40937 17.3776
H -5.25311 -1.51169 -5.60089
O -4.32264 -1.28703 -5.60069
O -5.37191 -2.04284 -4.8137
H -9.26068 -1.21594 -7.95261
O -8.59989 -0.548503 -8.13726
O -8.99095 -1.59575 -7.11663
H 9.3668 -5.3991 -5.67272
O 8.64375 -5.79645 -6.15792
O 9.34436 -5.82614 -4.81658
H -4.34733 7.2318 -14.5321
O -3.91268 6.39595 -14.3629
O -4.93041 7.05396 -15.2699
H 8.68282 -5.34958 13.7462
O 8.95433 -4.65759 13.1433
O 7.9921 -4.9499 14.2747
H 2.988 -6.25115 -6.17596
O 2.35884 -5.53006 -6.15533
O 3.27871 -6.34204 -5.26875
H -5.52846 -1.37103 -11.4798
O -5.48553 -0.566516 -10.9631
O -6.16668 -1.91728 -11.0211
H -2.50872 -8.29063 -12.5554
O -2.03327 -8.35242 -13.3837
O -2.72522 -9.19655 -12.3349
H 7.04783 8.84795 -2.94483
O 7.48291 8.33032 -3.62214
O 6.64077 8.19877 -2.37132
H 1.71892 2.3951 15.7211
O 2.08506 3.07717 16.2839
O 1.96369 1.57426 16.1482
H -6.46292 7.73566 -0.490756
O -6.64267 7.94994 -1.40594
O -6.25791 6.8007 -0.498926
H -9.25728 -2.59218 -10.5489
O -9.70426 -2.45412 -9.71405
O -8.53252 -3.18105 -10.3388
H 1.07172 -4.23394 -6.08301
O 0.588001 -4.3138 -6.90491
O 0.525779 -4.68441 -5.43878
H -5.45444 -7.57091 -13.5539
O -5.07634 -8.39742 -13.2537
O -4.91013 -7.31443 -14.2981
H 3.96563 -4.55076 3.28193
O 3.19014 -4.18854 3.71036
O 3.9469 -4.18081 2.39953
H -7.39995 0.308766 16.3346
O -7.48645 0.530028 15.4076
O -7.49003 -0.643749 16.3634
H -5.18519 1.13469 -16.8951
O -5.2006 0.181946 -16.986
O -5.85294 1.44501 -17.5065
H -7.23046 4.05212 -5.20906
O -7.66917 3.2738 -4.86565
O -6.31128 3.93511 -4.96903
H -5.22466 4.73377 -12.5291
O -5.61591 5.01239 -13.3569
O -4.90151 3.8495 -12.7019
H -2.40672 5.09201 -14.2312
O -1.4568 5.19615 -14.2863
O -2.53199 4.3239 -13.6741
H 9.65198 5.21739 -9.76745
O 9.92066 5.17727 -10.6851
O -9.78161 5.59199 -9.31282
H -3.30077 -3.85332 -9.87662
O -3.46445 -4.53186 -10.5315
O -4.07718 -3.29453 -9.91073
H 10.0889 2.88253 11.2329
O 9.77282 2.53327 12.0659
O -9.7629 2.11846 10.7646
H -4.77687 3.78477 -8.15092
O -3.92773 3.42572 -7.89358
O -5.41607 3.2522 -7.67774
H 9.38233 8.53946 -14.8399
O 9.35854 8.26483 -15.7563
O -9.98 8.189 -14.5058
H 3.03203 -0.821871 -9.09185
O 2.76669 -0.422377 -9.92002
O 3.57665 -1.5662 -9.34788
H 8.97754 -3.20436 -7.23831
O 9.78314 -2.71928 -7.41696
O 9.26318 -3.967 -6.73543
H 7.40093 -8.19791 17.1846
O 7.63803 -8.4834 16.3025
O 8.17754 -7.73933 17.5051
H 8.68109 -9.42578 -10.1933
O 8.10556 -8.85779 -10.7054
O 9.48199 -8.91447 -10.0778
H 0.0539358 -1.22746 -8.75546
O 1.00566 -1.17592 -8.84371
O -0.102148 -1.18644 -7.81221
H -0.468196 -6.29715 -7.81905
O -1.00731 -6.78119 -8.44442
O -0.354988 -6.89917 -7.08372
H -1.96439 -8.91606 -7.05162
O -2.02199 -8.40111 -7.85624
O -1.80665 -9.81162 -7.35042
H -9.758 8.01078 -3.56964
O 9.72699 7.49509 -3.96458
O 10.0844 8.27397 -2.71691
H 5.56673 8.75158 2.43453
O 5.78955 9.41446 1.78111
O 5.31472 9.2538 3.20924
H -2.42895 -2.5053 -17.0823
O -1.74284 -2.08166 17.4621
O -1.99456 -3.25438 -16.6745
H -1.36059 8.78402 -4.4198
O -1.25763 7.97796 -3.91407
O -0.528531 8.88517 -4.88195
H -4.57547 -4.57651 12.8475
O -4.22405 -5.46249 12.7592
O -3.92749 -4.0175 12.4188
H -4.48027 -1.52294 4.87458
O -3.71825 -1.50175 5.45332
O -4.2706 -2.19533 4.22654
H -4.95198 -4.30535 -15.801
O -5.15771 -3.39507 -16.0138
O -5.73829 -4.79284 -16.0465
H -5.536 1.25451 -6.04562
O -5.06888 1.55849 -5.2676
O -5.20548 0.368369 -6.19302
H 1.27961 -6.54012 -12.1279
O 1.1659 -5.93631 -12.8617
O 0.84247 -7.34408 -12.4085
H 5.53095 -3.93527 -4.96112
O 5.56418 -4.34524 -5.82521
O 5.90535 -4.58915 -4.37094
H 7.23698 6.91979 -0.698009
O 6.83591 6.75606 0.155326
O 7.47173 6.05078 -1.02344
H 1.03852 -2.77856 -11.8378
O 0.470849 -3.21221 -12.4748
O 0.96145 -3.31108 -11.0464
H 3.25217 6.29572 -0.600299
O 3.33913 5.92593 -1.47866
O 2.31006 6.29314 -0.431041
H -1.74643 -0.675395 -15.0924
O -2.17639 0.155995 -15.2928
O -2.20089 -1.31802 -15.637
H -2.9611 -4.39524 5.02229
O -3.73472 -4.32043 5.58086
O -2.24237 -4.57026 5.6296
H 3.87431 5.56751 -3.25924
O 3.6336 4.69032 -3.5572
O 4.72842 5.73092 -3.65916
H 6.32815 -4.94921 -0.153102
O 5.72733 -4.23578 0.0619271
O 5.87902 -5.7397 0.146233
H -4.77195 2.2504 -13.6707
O -5.01185 1.36651 -13.9488
O -4.84416 2.7799 -14.4646
H -7.8483 3.85358 -10.6055
O -7.66684 4.6546 -10.1141
O -8.40194 4.13842 -11.3324
H 5.94671 0.962135 -2.48822
O 5.27221 0.695631 -3.11277
O 6.04329 0.210109 -1.90412
H 1.98344 -8.78085 -3.16774
O 2.41159 -9.63632 -3.20055
O 2.70467 -8.15153 -3.16336
H -5.95906 -5.4965 2.41707
O -5.69109 -6.29848 1.96859
O -6.91125 -5.47483 2.32163
H 5.15363 3.23971 -6.96009
O 5.75439 2.49458 -6.9702
O 4.54603 3.06788 -7.6793
H 3.4578 3.19405 -4.89435
O 3.94616 3.45548 -5.67477
O 3.03366 2.37207 -5.14063
H 3.7141 -0.49471 4.24625
O 3.41266 0.0177783 4.9962
O 4.03452 0.157499 3.62337
H 5.56296 5.0847 0.50924
O 4.83247 5.42 -0.0104099
O 5.5595 4.14128 0.347524
H 5.57089 -0.4498 0.543931
O 5.92908 -0.256869 1.41014
O 5.06985 0.332072 0.311896
H -3.07332 -0.446555 -1.78863
O -3.55147 -0.281488 -0.976223
O -2.63739 -1.2864 -1.64425
H 3.30749 1.08159 6.44001
O 2.85599 1.90818 6.61063
O 3.45333 0.704232 7.30729
H -6.53882 -7.41106 -1.62886
O -6.1805 -6.74525 -2.21569
O -6.08203 -7.27072 -0.799693
H 10.02 2.20075 -9.26624
O -9.55633 1.49338 -9.062
O -9.60892 2.9546 -9.4543
H 9.69872 2.21274 -4.61078
O -9.76927 1.58679 -4.68823
O 8.99575 1.8367 -5.14041
H 8.79335 8.88214 -7.83633
O 8.69031 9.51062 -8.55073
O 9.73863 8.74683 -7.77019
H 4.63018 -5.08041 11.9
O 4.25857 -5.85227 12.327
O 5.14828 -5.43264 11.1765
H 4.5599 -7.91971 12.8379
O 5.28699 -8.23182 13.3765
O 4.3369 -8.66523 12.2807
H -4.32154 3.36399 0.462119
O -3.76887 3.55696 -0.295018
O -5.08102 3.93707 0.357255
H -4.5769 8.38032 -9.09837
O -4.5335 7.52187 -9.51946
O -4.22371 8.23511 -8.22087
H 0.405536 1.72864 11.7019
O 0.781499 2.5955 11.5488
O 0.106335 1.75393 12.6105
H 1.85946 -9.63901 -15.8921
O 1.54751 9.64374 -16.4689
O 2.49499 -9.15649 -16.4207
H -7.20389 -3.07924 -13.5475
O -7.65145 -3.69468 -14.128
O -7.26742 -3.47841 -12.6801
H -6.33646 4.99602 0.0497915
O -6.267 5.07366 1.00106
O -7.12483 4.47181 -0.0912626
H -2.02649 4.53429 -4.95084
O -2.11897 4.04803 -5.76991
O -2.60525 5.28976 -5.05348
H -8.35356 -2.15761 -5.45535
O -8.88256 -2.21786 -4.6601
O -7.69631 -2.84683 -5.35927
H 6.50414 -1.31226 10.8198
O 7.13454 -0.592038 10.8093
O 6.37199 -1.52891 9.89705
H -8.71197 -4.82376 16.8975
O -9.25081 -5.60981 16.808
O -8.30443 -4.90913 -17.3008
H 4.62805 3.18018 -16.1834
O 5.15562 3.62646 -15.5212
O 4.83768 2.25284 -16.0723
H -7.67353 6.05816 -9.11848
O -6.76796 6.35196 -9.21781
O -8.18356 6.8664 -9.06515
H -7.94872 1.29533 -15.7318
O -8.20354 0.575504 -16.3089
O -7.25144 0.930609 -15.187
H -7.37913 -4.84288 -10.0642
O -7.01198 -4.78597 -9.18229
O -7.3357 -5.77381 -10.2826
H 5.32951 1.56937 -11.7792
O 5.14403 0.654351 -11.9903
O 6.20093 1.55249 -11.3837
H -7.36376 -2.45643 16.3775
O -8.14353 -2.9576 16.6162
O -6.79394 -3.09141 15.9437
H 2.8729 -8.81387 -6.89278
O 2.93213 -7.89708 -6.62408
O 2.05774 -8.86547 -7.39172
H 4.62275 9.1506 -5.9403
O 5.12253 9.75683 -5.39368
O 3.89912 9.67606 -6.28152
H -5.11719 0.781462 6.91198
O -4.24301 1.11645 6.71247
O -5.57617 0.793107 6.0723
H -9.93489 -0.156982 -12.1142
O -9.67386 -0.797616 -11.4528
O -9.11572 0.0954901 -12.5401
H 5.78092 0.644486 -15.9478
O 6.5644 1.09324 -16.2655
O 5.8387 -0.234144 -16.3231
H -5.55845 -4.15567 -0.601015
O -6.36113 -3.73574 -0.291901
O -4.86456 -3.77031 -0.0661449
H -5.04679 2.80476 -3.6658
O -5.42202 2.2383 -2.99176
O -4.82841 3.61459 -3.20469
H -2.9444 -9.08028 -4.51971
O -2.95256 -8.84479 -5.44721
O -2.23865 -9.72215 -4.44125
H -6.4696 -5.65248 9.29485
O -6.14577 -5.77215 8.40231
O -5.69955 -5.78096 9.84856
H 0.52992 -1.51552 -5.73564
O 1.24109 -0.91273 -5.51865
O 0.833831 -2.36769 -5.42319
H 5.69635 -5.35317 -7.30418
O 5.23646 -4.87314 -7.99269
O 5.50132 -6.27331 -7.48169
H -8.39364 7.43739 -12.4411
O -8.0227 7.87354 -13.208
O -8.28945 6.5033 -12.6224
H -6.69129 -7.54807 -10.6963
O -6.57029 -7.72908 -9.76442
O -5.83616 -7.72532 -11.0881
H 2.40037 -5.12537 7.42428
O 3.34188 -5.11999 7.25183
O 2.10549 -4.24985 7.17385
H 2.57975 -5.24858 -0.341826
O 3.22903 -5.80345 0.0902582
O 3.09654 -4.57953 -0.790635
H 9.07954 -6.19566 -13.8604
O 8.93172 -7.10096 -14.1339
O 8.38612 -6.02091 -13.2243
H -2.39009 4.36615 -1.81366
O -1.87631 3.9393 -1.12823
O -2.18931 3.87067 -2.60744
H -1.13431 3.59713 0.4885
O -0.248439 3.71597 0.830968
O -1.43478 2.77675 0.879462
H 6.13342 -8.71684 -4.895
O 6.79174 -9.05707 -4.28927
O 6.64063 -8.29104 -5.58596
H -6.2894 1.70824 -1.34214
O -6.91333 2.36785 -1.03912
O -6.58619 0.893219 -0.937422
H -0.0113498 2.65931 -11.1085
O -0.613617 2.08257 -11.5784
O 0.649894 2.89683 -11.7584
H -6.25592 -4.24122 -5.81847
O -5.88889 -3.47175 -6.25359
O -5.51666 -4.84296 -5.73113
H 4.90331 -5.25346 -14.3477
O 5.53258 -5.85708 -14.7425
O 4.84714 -5.52981 -13.4333
H 5.45347 7.62295 -14.6345
O 6.29736 7.17633 -14.5665
O 5.44 7.97636 -15.5238
H 0.387668 -3.90652 -1.9155
O 0.938146 -4.50578 -1.41155
O 0.346887 -4.29552 -2.7889
H 8.51048 7.22047 -5.24356
O 8.88872 6.40221 -5.56536
O 8.46351 7.78346 -6.01607
H -0.0416066 -7.84476 -4.94057
O -0.577204 -8.45775 -5.44403
O 0.582433 -8.39965 -4.47281
H -2.82873 9.07532 -11.5662
O -2.36595 8.30459 -11.8948
O -2.85814 8.95112 -10.6177
H -3.20642 9.68843 17.3144
O -2.57337 9.07213 -17.3774
O -3.52559 9.25899 16.5209
H 7.79214 6.00682 -14.469
O 8.40746 6.66881 -14.1539
O 7.72282 5.38095 -13.7483
H -5.03543 -3.58853 15.3902
O -5.02183 -3.98424 14.5189
O -4.4084 -4.10391 15.8975
H -9.51287 -7.34538 16.3616
O -9.75413 -8.01199 15.7187
O -8.80568 -7.74516 16.8678
H -3.61265 -6.15726 -1.62882
O -2.87102 -6.16111 -1.02383
O -4.19305 -5.47429 -1.29286
H -3.70454 0.726668 0.613576
O -2.81633 0.73485 0.970203
O -3.8592 1.62898 0.334101
H -7.4224 1.18321 -11.7549
O -6.72914 1.67591 -12.194
O -7.89222 1.8382 -11.2388
H 4.06653 1.58253 2.37259
O 3.69027 2.22499 2.97402
O 4.47428 2.1082 1.68456
H 2.54773 -5.57921 -15.9597
O 2.63313 -5.20819 -16.8377
O 3.4408 -5.58881 -15.6155
H 4.1067 -6.98687 -3.52702
O 4.81162 -7.40102 -4.02469
O 4.41127 -7.00434 -2.61997
H 7.62069 -7.87003 -7.04925
O 8.18385 -7.79219 -7.81913
O 6.73044 -7.81176 -7.396
H 2.09699 6.0844 -10.8597
O 2.55636 5.45932 -11.4204
O 2.61071 6.10509 -10.0525
H 9.39059 8.14806 -11.3372
O 9.32858 9.09666 -11.2253
O -9.87398 7.98935 -11.5329
H 7.46754 3.70165 -16.3048
O 7.76364 4.50661 -15.88
O 7.79859 2.9991 -15.7455
H -8.22268 -8.21279 -5.77574
O -9.08538 -8.61382 -5.67016
O -8.33296 -7.31802 -5.45416
H -8.27317 -5.925 -3.68199
O -8.43157 -5.37931 -2.91189
O -8.77829 -6.72171 -3.51973
H 5.40764 -9.64352 -13.5914
O 4.51626 -9.69102 -13.2459
O 5.58156 9.45759 -13.9283
H 5.29736 9.53047 -16.6961
O 4.47166 9.91189 -16.9943
O 5.94131 9.81515 -17.3444
H 5.05217 -6.7862 15.5643
O 5.4171 -6.06521 15.0513
O 5.81717 -7.24442 15.9121
H 0.533393 6.4424 -0.00408525
O 0.160103 7.27981 -0.27904
O -0.0362007 5.78368 -0.401323
H 2.25542 -9.53894 10.9848
O 2.13608 -8.70658 11.4421
O 1.39376 -9.95474 11.0145
H -2.96465 -4.75462 -4.56261
O -2.72514 -4.56023 -5.46851
O -3.45617 -3.98562 -4.27412
H -9.87554 4.5057 -12.2806
O -9.6594 5.00567 -13.0675
O 9.6713 3.85906 -12.5755
H -4.11727 6.14867 -5.01509
O -4.97438 6.32334 -5.40366
O -4.3112 5.88046 -4.11716
H 9.39647 -9.67672 -5.19659
O 9.13554 -9.84556 -6.10169
O 9.90171 9.5304 -4.94441
H 2.71434 5.74013 -7.98651
O 2.48321 6.29057 -7.23849
O 3.67131 5.74993 -8.00512
H -8.21213 -5.29207 -7.3897
O -8.92845 -5.53588 -6.80362
O -7.60746 -4.79712 -6.83701
H -8.81654 8.99309 -7.64858
O -8.30742 9.03868 -6.8395
O -8.15965 8.93575 -8.34226
H -7.2131 7.3074 11.1223
O -7.33256 7.74199 10.2781
O -7.55447 6.42334 10.9877
H 2.31524 -0.045653 16.4015
O 2.86453 -0.33335 17.1306
O 2.63535 -0.543226 15.6493
H -0.420008 -5.38619 -4.10641
O -1.35281 -5.20453 -3.99192
O -0.361472 -6.3415 -4.12012
H 9.53299 -6.86841 -9.59373
O -9.84734 -6.35767 -9.64897
O 8.83394 -6.22579 -9.71451
H 8.87361 -4.02964 -11.629
O 8.54659 -3.99308 -10.7304
O 9.75648 -3.66331 -11.5782
H -2.06163 -2.50517 8.28974
O -1.98867 -2.06446 7.44339
O -2.94988 -2.30814 8.58703
H 9.6108 -4.8898 8.65366
O 9.96039 -5.00247 7.76996
O -10.0787 -5.50684 9.18921
H -7.06395 7.83073 -3.4749
O -7.11185 8.78608 -3.51024
O -7.92432 7.53609 -3.77345
H -2.3075 -9.52334 8.61715
O -1.65733 -9.73366 7.94705
O -1.87931 -8.86983 9.17
H 8.14963 -6.81594 2.00086
O 8.40768 -6.46037 1.15067
O 8.97496 -7.06238 2.41828
H -1.28354 5.89408 2.69135
O -1.80022 5.70913 3.4754
O -1.72536 5.41055 1.99351
H 1.33963 -1.55361 10.7131
O 1.18869 -1.59612 11.6571
O 2.22447 -1.8993 10.5957
H 2.74192 9.92983 7.77294
O 2.95933 -9.30532 8.3333
O 1.79267 9.98231 7.66161
H -1.67604 6.91388 12.5684
O -0.88422 6.6105 13.0124
O -1.64491 7.86734 12.647
H 6.5163 0.339166 6.22911
O 5.97959 1.12229 6.10711
O 6.01329 -0.363145 5.81693
H 3.55953 -7.50647 9.12596
O 4.37613 -7.05668 9.34288
O 2.87175 -6.92412 9.44846
H -4.37823 -5.9611 6.94714
O -4.55437 -6.79852 6.51836
O -3.79457 -6.18138 7.67293
H -4.00876 5.58774 16.4614
O -3.81377 5.14856 15.6337
O -3.66479 6.474 16.3497
H 8.95154 1.97508 13.6179
O 8.06346 1.68436 13.8252
O 9.4343 1.1669 13.4447
H 0.84317 -1.36293 7.89694
O -0.0708089 -1.64181 7.95261
O 1.0699 -1.10397 8.78989
H -4.36952 8.12353 15.4406
O -5.29263 7.87898 15.5062
O -4.17529 8.07849 14.5046
H -7.7193 -0.336104 0.364107
O -6.85092 -0.377894 0.764515
O -8.17836 -1.1034 0.705716
H 8.44924 -3.54587 -15.0669
O 8.45457 -4.13851 -14.3154
O 8.74633 -4.08513 -15.7996
H -9.84011 -0.26743 12.9179
O -9.58486 -0.830271 12.1871
O -9.03208 0.179384 13.1702
H 9.3541 -0.203338 -1.41091
O 9.96626 0.529305 -1.34222
O 8.53581 0.194699 -1.70782
H -2.43215 1.6238 -16.3446
O -1.85862 2.36951 -16.5212
O -3.14765 1.71702 -16.9734
H 1.80295 -2.53293 5.85902
O 1.55759 -2.05946 6.6537
O 2.42904 -1.95699 5.42034
H 7.56431 -7.9816 14.4032
O 7.39139 -8.60391 13.6969
O 7.99958 -7.24541 13.9734
H -7.63436 3.90703 -16.4089
O -7.63852 2.96259 -16.2532
O -6.70997 4.15252 -16.3705
H 7.2565 4.38973 -1.79185
O 6.87314 4.45185 -2.6665
O 6.85948 3.60647 -1.41102
H -0.419529 -7.55839 14.4582
O -1.29276 -7.90924 14.6331
O -0.00584309 -7.50374 15.3195
H 5.88222 -4.34977 14.1927
O 5.619 -3.48233 14.5
O 5.29692 -4.53166 13.4576
H -2.21611 5.11567 5.52767
O -2.61938 4.70502 6.29231
O -2.53575 6.01779 5.54314
H 8.72247 1.46909 7.65246
O 8.10099 1.08994 7.03115
O 8.78163 2.39068 7.40075
H -0.683118 -7.58082 10.4228
O -1.38809 -7.01811 10.743
O 0.119901 -7.14837 10.7132
H 6.26464 2.64476 4.66826
O 7.19857 2.82594 4.56254
O 5.962 3.30238 5.29434
H -8.65097 -5.52185 2.79863
O -9.29312 -4.97334 2.34819
O -9.14107 -6.30258 3.05643
H -1.30751 -1.19241 2.69473
O -0.425078 -1.25 2.32844
O -1.73408 -2.00475 2.42207
H 7.74134 1.18292 10.4972
O 7.25326 1.97104 10.7356
O 8.3311 1.46789 9.79936
H 6.92575 0.504823 2.84212
O 6.78292 1.22999 3.45021
O 7.83962 0.254386 2.97759
H -2.54559 1.59453 8.91723
O -3.36239 1.71172 9.40223
O -1.95799 1.16278 9.53719
H 0.732058 0.802286 -15.7223
O 1.14127 1.27335 -14.9967
O -0.092513 0.475864 -15.3622
H 10.0417 -2.28022 -3.26871
O 9.87332 -1.5114 -2.72405
O 9.24128 -2.39064 -3.78177
H -7.95058 -3.03837 1.21446
O -8.15009 -2.65704 2.06923
O -7.91455 -3.98136 1.37474
H 1.42912 -9.90393 13.7866
O 0.738454 9.45986 13.5428
O 0.973469 -9.20776 14.2598
H 5.84535 -5.98717 9.57702
O 6.15656 -5.19878 9.13237
O 6.52451 -6.64074 9.41024
H 9.09653 -3.88801 1.17436
O 8.65448 -3.63309 1.98399
O 8.39823 -3.92325 0.520804
H -9.10049 1.08705 9.22825
O -8.40994 1.57545 8.78019
O -9.85083 1.13396 8.63594
H -0.641843 1.06269 6.7868
O 0.153717 1.12369 7.31543
O -1.35633 1.16439 7.41544
H -4.97063 2.28786 10.0531
O -4.88235 3.13661 10.4867
O -5.55391 1.78667 10.6229
H -8.93261 0.659363 5.25187
O -8.79061 -0.0013896 5.92954
O -8.05272 0.950035 5.01205
H -0.80789 -5.64408 7.47512
O -0.257685 -6.42716 7.45812
O -1.16041 -5.61774 8.36442
H -8.84067 -4.02312 -1.50134
O -9.32011 -3.46731 -2.11555
O -9.0178 -3.63972 -0.642576
H -6.45875 -4.90815 5.60279
O -5.75885 -5.22426 6.17401
O -6.11117 -5.01282 4.71732
H -0.561558 2.03066 14.2
O 0.168888 2.1351 14.8096
O -1.15759 2.74831 14.4143
H 8.81861 4.28089 7.06184
O 8.18465 4.86411 6.64462
O 9.60944 4.36554 6.52938
H -0.683188 -1.1151 16.4009
O 0.245689 -0.99019 16.2064
O -1.07271 -0.249479 16.2776
H 0.055555 -5.44158 3.10458
O 0.661461 -6.17397 2.99186
O -0.633498 -5.78549 3.6729
H 7.06893 -3.74594 8.24686
O 7.90846 -4.06078 8.58188
O 7.26799 -2.89044 7.86652
H -9.0292 -8.33522 -1.49653
O -8.10294 -8.16624 -1.32419
O -9.19599 -9.18863 -1.09651
H -2.02778 -3.61419 1.96963
O -1.99608 -3.41298 1.0346
O -1.28899 -4.20567 2.11301
H 0.507567 -5.34716 12.9014
O 1.26692 -5.24937 13.4757
O 0.0552299 -6.12345 13.2315
H -0.586185 5.46886 16.4211
O -1.16956 6.05166 16.907
O -0.330411 4.80054 17.0567
H -0.22406 -8.42269 -14.5431
O -0.195446 -7.46626 -14.5175
O 0.563777 -8.67351 -15.0253
H -2.64633 -3.35041 11.4045
O -1.79312 -3.60602 11.054
O -2.85583 -2.5325 10.9537
H 5.43033 9.59722 10.3212
O 4.92798 8.79187 10.4448
O 4.77807 -9.6837 10.3667
H -2.38667 -8.631 -1.47994
O -2.33375 -8.83427 -2.41357
O -3.07491 -7.96872 -1.41713
H 9.32073 -7.49931 -3.48023
O 9.22753 -8.30318 -3.99131
O 9.61928 -7.79508 -2.62044
H -3.06505 -8.1378 14.7767
O -3.9587 -8.48073 14.7708
O -3.07825 -7.44484 15.4367
H -9.91822 -8.2475 6.03154
O 9.50412 -7.67371 6.00426
O 9.9964 -8.98683 6.57444
H -9.07362 4.4831 2.91275
O -9.22784 3.60257 2.57062
O -9.93681 4.89678 2.90859
H 2.45959 -0.450808 -12.0986
O 1.97059 -1.26175 -11.9591
O 3.27002 -0.729597 -12.5248
H -2.96814 -6.8831 12.1571
O -2.52102 -6.89956 13.003
O -3.37616 -7.74594 12.0844
H -8.89042 -5.99962 13.5263
O -9.82803 -6.06278 13.7083
O -8.51233 -5.65008 14.333
H -0.641838 8.76502 1.99913
O -0.395382 8.88951 1.08286
O -1.01063 7.88228 2.0307
H 8.72283 -1.16686 5.10996
O 9.21262 -1.20461 5.93127
O 8.06914 -0.482114 5.2515
H -9.52511 -1.69133 7.32971
O -8.73892 -1.72423 6.78483
O -9.34722 -2.30242 8.04447
H -5.18932 -9.44869 13.8618
O -6.01587 -9.05215 13.5865
O -5.25305 9.62023 13.5753
H 3.51627 -9.2287 16.5898
O 4.05834 -8.4525 16.4488
O 2.76515 -9.10561 16.0095
H -2.76194 4.40192 13.7416
O -3.51178 4.15363 13.2011
O -2.46638 5.23486 13.3742
H -4.6101 -0.905438 10.0666
O -4.66682 -0.346199 9.29208
O -4.21339 -0.34826 10.7361
H -4.79907 8.12032 12.5967
O -4.40042 8.84423 12.1139
O -5.31528 7.65034 11.942
H 2.88313 -6.39968 -9.96135
O 2.2359 -6.31682 -10.6615
O 2.5585 -7.11798 -9.41844
H -3.57829 6.05388 10.5603
O -3.26739 6.46588 9.75434
O -2.99867 6.39328 11.242
H 7.59089 -7.71185 7.96944
O 6.92449 -8.34655 7.70625
O 7.68516 -7.13461 7.21192
H -7.23524 7.75694 15.6345
O -7.58873 8.02222 14.7856
O -7.89907 8.03133 16.267
H 6.13291 6.26926 3.3126
O 5.98819 7.19245 3.10528
O 6.02325 5.81553 2.47716
H 0.977066 -2.26559 -15.9537
O 0.570488 -1.40368 -16.0433
O 1.50994 -2.19831 -15.1615
H -7.4189 -2.3507 5.7371
O -6.64338 -1.79335 5.67256
O -7.07722 -3.20939 5.98633
H -9.24516 -1.98119 3.60527
O -10.0223 -1.80262 4.13466
O -8.51878 -1.95304 4.22785
H -8.97853 -1.3909 10.4299
O -9.068 -0.587908 9.91681
O -8.03462 -1.54353 10.4741
H 1.70036 4.47018 12.1338
O 2.53187 4.25538 12.5564
O 1.9184 4.55757 11.2061
H 0.60189 9.07959 4.42423
O 0.0206784 8.95638 3.67393
O 1.28325 9.67151 4.10556
H 1.1907 -7.64803 6.81167
O 1.64021 -8.09728 6.09607
O 1.78195 -6.93647 7.05724
H -9.02642 1.77212 2.20803
O -8.40165 1.40952 2.83589
O -9.64306 1.05867 2.04384
H -7.18002 8.82838 -9.86592
O -7.22669 8.23159 -10.6126
O -6.24356 8.97911 -9.73734
H -7.82225 8.55844 8.76943
O -8.13393 9.43067 8.52802
O -6.97491 8.47669 8.33188
H -3.93661 -9.47937 10.9881
O -3.56222 -9.50639 10.1078
O -4.87202 -9.33356 10.8468
H -2.0054 -2.95513 -0.68289
O -1.57501 -2.10177 -0.630286
O -1.35406 -3.52785 -1.08773
H 3.43083 6.79385 13.9496
O 3.57432 7.71491 13.7322
O 4.06935 6.31929 13.4175
H 3.18615 7.55081 1.85618
O 3.26107 7.3173 0.93117
O 4.08305 7.74562 2.12785
H 4.50648 -3.14918 0.900947
O 4.64154 -2.33888 1.39216
O 3.9654 -2.89018 0.155229
H 9.00171 9.51401 6.98439
O 8.65081 9.23134 7.82868
O 9.36879 8.71859 6.59875
H -2.9635 1.1441 4.22718
O -3.52176 1.80264 3.81387
O -3.44604 0.323492 4.1273
H -6.53961 -2.90374 10.4267
O -6.43287 -3.84183 10.2692
O -5.77841 -2.50192 10.0081
H 6.33489 -1.0814 15.6199
O 7.19456 -0.725126 15.8441
O 6.06289 -0.584388 14.8486
H 8.40793 4.86258 3.50425
O 8.47007 5.20724 4.39485
O 7.55876 5.16975 3.18685
H 9.23187 6.36946 12.2628
O 8.65352 5.82046 12.7922
O 8.88947 6.28994 11.3728
H 0.0341235 8.65898 10.5677
O -0.00756421 8.74017 9.61511
O 0.0603982 7.71553 10.7272
H -6.23826 5.13443 9.53132
O -5.68567 5.81224 9.92039
O -6.95166 5.01696 10.1585
H 8.09086 9.05817 9.52773
O 7.20352 9.33674 9.75406
O 8.66078 9.64488 10.0248
H 9.13819 -3.11335 12.0936
O 8.41367 -2.60466 11.7296
O 9.85982 -2.97638 11.48
H 7.30244 2.47886 0.403176
O 8.11665 2.97821 0.465993
O 7.40985 1.76466 1.03119
H -6.72906 -9.3091 10.8334
O -7.16685 -9.09674 11.6575
O -7.43659 -9.5817 10.2493
H -6.49692 0.952976 4.32263
O -6.24024 1.74439 3.84945
O -6.46148 0.258088 3.66545
H -5.49894 -7.94106 0.94485
O -4.65669 -8.39472 0.912862
O -6.1489 -8.63258 0.820006
H 6.7685 5.68657 5.8913
O 6.43964 6.03422 5.06253
O 6.29217 6.17544 6.56221
H -5.03398 4.48511 12.1965
O -5.9858 4.57944 12.1596
O -4.70621 5.10058 11.5409
H 7.90087 1.3618 16.8607
O 8.30643 1.55385 -17.3541
O 8.54551 0.822858 16.4023