ITEM: TIMESTEP
40000
ITEM: NUMBER OF ATOMS
1422
ITEM: BOX BOUNDS pp pp pp
-1.0093999999999999e+01 1.0093999999999999e+01
-9.9900000000000002e+00 9.9900000000000002e+00
-1.7530012171961602e+01 1.7530012171961602e+01
ITEM: ATOMS id type x y z vx vy vz ix iy iz
264 1 -4.77829 -8.61736 -9.12382 0.00645205 0.00313962 0.00475649 0 0 0
262 2 -3.95204 -8.98527 -9.43709 0.0024225 -0.00219316 0.000333539 0 0 0
26 1 -1.04845 -2.98618 -14.8404 0.00719491 -0.00543333 -0.00126741 0 0 0
27 1 -2.29254 -3.20371 -14.0058 -0.00179485 0.000464542 -0.0129002 0 0 0
25 2 -1.43937 -3.5881 -14.2072 0.00326264 0.00266616 0.00417014 0 0 0
318 1 -4.91013 -7.31443 -14.2981 -0.00339882 -0.00778465 -0.0145598 0 0 0
564 1 -5.83616 -7.72532 -11.0881 -0.00408907 -0.0244387 -0.00731193 0 1 0
295 2 -5.52846 -1.37103 -11.4798 -0.00207422 0.000536214 -0.0007422 0 0 0
296 1 -5.48553 -0.566516 -10.9631 0.0105895 0.000118326 -0.00102766 0 0 0
83 1 -6.11033 -0.972009 -15.1473 -0.0202712 0.0104778 -0.00428155 0 0 0
297 1 -6.16668 -1.91728 -11.0211 0.0123515 -0.00153861 0.016953 0 0 0
133 2 -7.71426 -5.71086 -15.5468 0.00509157 0.00272904 0.000798573 0 0 0
135 1 -8.01087 -6.57978 -15.8174 0.0060806 0.00162217 0.00320541 0 0 0
562 2 -6.69129 -7.54807 -10.6963 0.00449686 -0.000373473 0.000612953 0 1 0
1387 2 -7.82222 -8.4208 -17.0301 0.00369611 0.000758602 0.000501144 0 1 1
1388 1 -8.13805 -8.71449 -16.1758 -0.00427911 0.0206472 0.00462222 0 1 1
134 1 -8.03828 -5.61483 -14.6515 0.000296408 0.00710375 -0.00118597 0 0 0
563 1 -6.57029 -7.72908 -9.76442 0.0123361 0.0119968 0.00223419 0 1 0
1389 1 -6.86877 -8.41762 -16.9454 0.00356925 -0.0167966 0.00284254 0 1 1
1353 1 -9.68435 -5.65373 -13.0105 0.00103298 -0.0132436 0.00442818 1 0 0
1351 2 -8.79536 -5.32593 -12.8746 -0.002822 -0.000827844 -0.000198056 1 0 0
1352 1 -8.42361 -5.90812 -12.2121 0.0142697 -0.00563034 -0.0138198 1 0 0
317 1 -5.07634 -8.39742 -13.2537 0.001904 0.00268429 -0.00258939 0 0 0
316 2 -5.45444 -7.57091 -13.5539 0.00407809 0.00272815 -0.00527656 0 0 0
692 1 -8.30742 9.03868 -6.8395 -0.00469739 -0.00676538 -0.00153727 1 0 0
517 2 -7.37913 -4.84288 -10.0642 -0.00232083 -0.00238969 -0.00103487 1 0 0
607 2 -2.82873 9.07532 -11.5662 0.0111016 -0.00120134 -2.05414e-05 0 -1 0
391 2 -4.95198 -4.30535 -15.801 -0.00249561 0.000892537 0.00495309 0 0 0
392 1 -5.15771 -3.39507 -16.0138 -0.00619358 -0.00364346 -0.0108903 0 0 0
3 1 -4.10269 -2.1838 -12.5613 0.0124464 0.0209711 -0.0138338 0 0 0
299 1 -2.03327 -8.35242 -13.3837 0.0164788 -0.000201848 0.013441 0 1 0
263 1 -4.01526 -9.91975 -9.23973 -0.00449301 -0.00253034 -0.00344867 0 0 0
310 2 -9.25728 -2.59218 -10.5489 0.00118461 -0.00610409 0.00185028 1 0 0
312 1 -8.53252 -3.18105 -10.3388 -0.00572893 -0.00953883 0.0160986 1 0 0
519 1 -7.3357 -5.77381 -10.2826 -0.0108516 -0.00124448 -0.00769157 1 0 0
1254 1 -4.44016 -6.02505 -11.9011 0.00411208 -0.00152616 -0.0121449 0 0 1
1252 2 -3.60346 -5.99449 -11.4372 -0.00174741 -0.00442179 -0.0012781 0 0 1
1253 1 -3.06157 -6.65016 -11.8761 0.0116493 0.0149929 -0.0138878 0 0 1
518 1 -7.01198 -4.78597 -9.18229 0.0112343 -0.0100905 -0.00594557 1 0 0
704 1 -9.84734 -6.35767 -9.64897 -0.00356888 -0.000262742 0.0208266 1 0 0
342 1 -4.07718 -3.29453 -9.91073 -0.0130501 -0.0233385 0.0159288 0 0 0
298 2 -2.50872 -8.29063 -12.5554 -0.00605649 0.00174926 0.000535639 0 1 0
300 1 -2.72522 -9.19655 -12.3349 0.0151185 -0.000337129 0.0126885 0 1 0
2 1 -4.57162 -2.72096 -13.8964 -0.00770201 -0.0167347 0.00809816 0 0 0
1 2 -3.84223 -2.76202 -13.2781 0.000971288 -0.000439925 -0.000935833 0 0 0
397 2 1.27961 -6.54012 -12.1279 0.00327349 0.00773505 0.00304951 0 0 0
398 1 1.1659 -5.93631 -12.8617 0.022219 0.00188646 -0.00486062 0 0 0
981 1 -6.24356 8.97911 -9.73734 0.00337019 -0.0132987 -0.00920296 0 -1 1
33 1 -1.6031 -7.14825 -10.6263 -0.0192408 0.00616133 0.00289714 1 0 0
393 1 -5.73829 -4.79284 -16.0465 0.00704586 -0.0092758 -0.0055074 0 0 0
69 1 -8.17188 -9.22846 -13.6926 -0.0147162 0.0103294 -0.00311287 0 1 0
67 2 -7.63289 -8.97732 -14.4425 0.00128026 0.00175255 0.00529754 0 1 0
68 1 -7.01377 -8.33812 -14.09 -0.0109446 0.0112249 0.00974862 0 1 0
1158 1 -3.79496 -5.46125 -15.3229 0.000401401 0.00847512 0.00668113 0 0 1
1156 2 -3.17868 -6.10598 -14.9755 0.00374459 0.00547658 -0.00471051 0 0 1
1157 1 -2.66595 -5.62288 -14.3276 -0.00712814 -0.0065271 0.0130201 0 0 1
1261 2 -1.73855 -1.66502 -10.6001 0.00116588 -0.00447462 0.00276318 0 0 1
536 1 -9.67386 -0.797616 -11.4528 0.00924583 -0.0184985 -0.0165664 0 -1 0
311 1 -9.70426 -2.45412 -9.71405 -0.0065372 0.00672174 -0.00420956 1 0 0
53 1 -6.23516 -1.91637 -8.10772 -0.00805864 -0.00571322 0.00969366 0 0 0
54 1 -4.78551 -1.7434 -8.50821 -0.00966238 -0.00125734 0.0057211 0 0 0
340 2 -3.30077 -3.85332 -9.87662 0.00542533 0.00142192 -6.29857e-05 0 0 0
341 1 -3.46445 -4.53186 -10.5315 0.0144277 -0.00270853 0.00182538 0 0 0
1335 1 -0.596538 0.4663 -8.89011 0.00645385 0.00413331 -0.0168615 -1 -1 1
507 1 -8.30443 -4.90913 -17.3008 -0.0142799 0.0158806 0.0100082 1 0 0
492 1 -7.26742 -3.47841 -12.6801 0.00743378 0.0159059 0.0122793 1 0 0
491 1 -7.65145 -3.69468 -14.128 0.00212864 -0.00230342 0.0160545 1 0 0
490 2 -7.20389 -3.07924 -13.5475 0.00222167 0.00612678 0.00719025 1 0 0
368 1 -1.00731 -6.78119 -8.44442 0.00303631 -0.00387881 0.00637852 -1 -1 0
537 1 -9.11572 0.0954901 -12.5401 -0.00040361 -0.00583738 -0.0113664 0 -1 0
82 2 -6.21959 -0.272448 -14.5033 -0.00436754 0.00517988 0.00432596 0 0 0
516 1 -7.25144 0.930609 -15.187 0.00245383 0.00776883 -0.00790749 0 0 0
84 1 -6.31073 -0.728598 -13.667 -0.0235591 -0.00318177 -0.00213001 0 0 0
259 2 -8.55856 -9.32745 -11.4834 0.00364652 -0.00524677 -0.0030801 0 0 0
80 1 -7.00277 0.707139 -9.33229 0.00967227 -0.00276854 0.00409109 1 0 0
261 1 -7.89283 -8.66464 -11.2998 0.00468709 -0.00930614 0.00782568 0 0 0
169 2 -3.72277 0.12075 -9.59617 8.09711e-05 -0.0114932 -0.00298148 0 -1 0
52 2 -5.55031 -2.29983 -8.65546 -0.0106173 0.0011448 0.00156074 0 0 0
612 1 -3.52559 9.25899 16.5209 0.00424322 -0.00710166 -0.00751118 0 -1 -1
1381 2 -1.76385 -8.01224 -17.06 0.00366148 0.00281731 0.00262079 0 1 1
1383 1 -2.41475 -8.68065 -17.2739 -0.00684141 0.0116603 0.00678867 0 1 1
1382 1 -1.97739 -7.747 -16.1656 0.0246609 -0.00766163 0.0109436 0 1 1
197 1 -4.54964 -7.324 -16.223 0.00663779 -0.0110479 0.00810485 1 0 0
760 2 8.44924 -3.54587 -15.0669 0.0025176 -0.000334858 -0.00115219 0 0 1
761 1 8.45457 -4.13851 -14.3154 -0.0249012 -0.00528814 -0.00464219 0 0 1
515 1 -8.20354 0.575504 -16.3089 0.0163805 0.0126135 -0.0215173 0 0 0
399 1 0.84247 -7.34408 -12.4085 -0.0111791 0.0137491 0.00824618 0 0 0
648 1 -9.87398 7.98935 -11.5329 0.00194011 -0.012545 0.0189485 1 -1 0
955 2 0.977066 -2.26559 -15.9537 0.000604508 -0.00118671 -0.00116313 0 0 1
956 1 0.570488 -1.40368 -16.0433 0.00374188 0.000622186 0.00198412 0 0 1
708 1 9.75648 -3.66331 -11.5782 -0.00215528 0.00910505 0.013407 0 0 0
572 1 8.93172 -7.10096 -14.1339 -0.0081659 -0.00478438 -0.00402457 0 1 0
573 1 8.38612 -6.02091 -13.2243 -0.00536451 0.00126208 -0.00929983 0 1 0
571 2 9.07954 -6.19566 -13.8604 -0.000446537 -0.00665226 -0.00193715 0 1 0
705 1 8.83394 -6.22579 -9.71451 -0.00376817 -0.00463334 0.0165944 0 0 0
703 2 9.53299 -6.86841 -9.59373 -0.001744 -0.00515751 0.0020632 0 0 0
707 1 8.54659 -3.99308 -10.7304 -0.00771353 -0.0151978 -0.00382786 0 0 0
1178 1 -9.24793 -1.5272 -14.0512 0.012062 0.00160757 -0.0105249 1 0 1
706 2 8.87361 -4.02964 -11.629 0.00197237 0.00120303 -0.00116097 0 0 0
635 1 2.63313 -5.20819 -16.8377 0.00640756 0.00913032 0.00566642 0 0 0
636 1 3.4408 -5.58881 -15.6155 0.00181394 0.000908914 0.00643362 0 0 0
634 2 2.54773 -5.57921 -15.9597 0.00355287 0.000242468 0.00183736 0 0 0
217 2 5.13196 -5.51449 -11.5503 0.00583264 -0.0047627 0.00878026 -1 0 0
219 1 4.34653 -5.69711 -11.0347 -0.00114107 0.0265383 0.00939034 -1 0 0
218 1 5.75349 -6.19427 -11.29 -0.0113051 -0.012587 0.0293791 -1 0 0
408 1 0.96145 -3.31108 -11.0464 -0.0204062 -0.0102633 -0.0127425 0 0 0
406 2 1.03852 -2.77856 -11.8378 -0.00252776 0.00423828 -0.00143576 0 0 0
540 1 5.8387 -0.234144 -16.3231 -0.0239594 -0.0111858 0.015892 0 0 0
538 2 5.78092 0.644486 -15.9478 -0.00820834 -0.0035878 0.000594868 0 0 0
354 1 3.57665 -1.5662 -9.34788 0.012937 0.00316138 0.00418441 0 0 0
353 1 2.76669 -0.422377 -9.92002 0.00941168 0.000269761 0.00325035 0 0 0
407 1 0.470849 -3.21221 -12.4748 0.00366232 0.0219037 -0.0191196 0 0 0
594 1 4.84714 -5.52981 -13.4333 -0.00231489 -0.0263495 0.0012114 -1 0 0
592 2 4.90331 -5.25346 -14.3477 -0.0036549 -0.00537921 0.00722023 -1 0 0
593 1 5.53258 -5.85708 -14.7425 -0.0133739 -0.00396202 -0.01051 -1 0 0
539 1 6.5644 1.09324 -16.2655 0.00729672 -0.0278095 0.00452607 0 0 0
557 1 5.23646 -4.87314 -7.99269 -0.0276842 -0.00726447 0.00569112 0 0 0
362 1 8.10556 -8.85779 -10.7054 -0.00407575 0.00632224 0.0170461 -1 0 0
361 2 8.68109 -9.42578 -10.1933 0.00309497 -0.00321725 -0.00146998 -1 0 0
363 1 9.48199 -8.91447 -10.0778 0.00773647 -0.00853543 -0.0100114 -1 0 0
942 1 2.5585 -7.11798 -9.41844 0.00715284 0.0060266 0.00683675 0 0 0
102 1 -0.0819041 -4.98078 -14.2979 -0.0113903 -0.00564831 0.00336873 0 0 0
101 1 0.894623 -5.65541 -15.2375 0.00466741 0.000279936 0.0156492 0 0 0
100 2 0.126843 -5.82748 -14.6925 -0.00429117 -0.00329101 0.00199765 0 0 0
556 2 5.69635 -5.35317 -7.30418 -0.00265689 -0.00101359 -0.00653732 0 0 0
940 2 2.88313 -6.39968 -9.96135 0.00737367 -0.00121961 -0.00275084 0 0 0
98 1 10.0159 -9.1683 -12.6845 -0.00591448 0.00932947 0.0135566 0 0 0
97 2 9.09565 -9.19747 -12.9463 -0.00186211 -0.00243468 0.000607519 0 0 0
99 1 9.05246 -9.9014 -13.5933 0.0173222 0.000916219 -0.0044706 0 0 0
488 1 1.54751 9.64374 -16.4689 -0.00408095 0.00275358 0.00081882 0 -1 0
489 1 2.49499 -9.15649 -16.4207 -0.00634503 0.00417401 0.0106687 0 0 0
487 2 1.85946 -9.63901 -15.8921 -0.00490899 -0.00187719 0.00699947 0 0 0
77 1 5.20503 -8.53758 -8.97313 -0.0371024 -0.00953848 0.0116926 0 0 0
1067 1 6.98006 -5.12555 -8.85883 0.00382456 -0.024573 -0.00224395 -1 0 0
558 1 5.50132 -6.27331 -7.48169 -0.00410073 -0.00299665 0.00529185 0 0 0
941 1 2.2359 -6.31682 -10.6615 -0.00867052 0.00999095 0.0131919 0 0 0
369 1 -0.354988 -6.89917 -7.08372 -0.00628267 0.00626013 0.0120413 -1 -1 0
367 2 -0.468196 -6.29715 -7.81905 0.00105537 -0.000244724 0.00542479 -1 -1 0
29 1 7.06648 -3.23264 -11.7697 0.000814162 0.0123142 0.00798491 0 0 0
1129 2 2.55726 -3.55353 16.6968 0.00307863 0.00787171 0.00676275 0 0 0
1131 1 2.06163 -3.08236 17.3664 0.0118677 0.0214726 0.00386351 0 0 0
658 2 5.40764 -9.64352 -13.5914 0.00282972 0.00379259 -0.00391771 0 0 0
76 2 5.3016 -7.97314 -8.20631 -0.0015813 0.00300267 -0.00176291 0 0 0
30 1 5.73999 -3.95625 -11.8631 0.00524425 0.00450649 0.00527765 0 0 0
28 2 6.12142 -3.08165 -11.7868 2.26288e-05 0.00693255 0.00365954 0 0 0
1404 1 3.44762 -4.47335 -9.68397 -0.0186367 0.0036449 0.00476661 0 0 0
1402 2 3.84768 -3.83573 -9.09284 -0.00115379 -0.0015613 -0.00130036 0 0 0
1403 1 3.31341 -3.87581 -8.29984 0.00195954 0.0157807 0.0018553 0 0 0
6 1 6.86067 -1.79839 -10.7175 -0.0151963 0.0189732 -0.00883169 0 0 0
1349 1 6.88894 -2.95753 -15.2651 -0.0054756 -0.0124564 -0.00367999 0 0 1
885 1 0.563777 -8.67351 -15.0253 0.0025889 -0.0168775 0.00821063 0 0 1
883 2 -0.22406 -8.42269 -14.5431 0.00493692 -0.00128119 0.00401732 0 0 1
535 2 -9.93489 -0.156982 -12.1142 0.004224 -0.00554585 -0.00218228 0 -1 0
646 2 9.39059 8.14806 -11.3372 8.87945e-05 -0.00495704 0.00417426 0 -1 0
647 1 9.32858 9.09666 -11.2253 0.00602032 -0.0044176 0.00291931 0 -1 0
18 1 6.21833 -7.83567 -12.7782 -0.00121826 -0.00166023 0.000228354 -1 0 0
16 2 6.99774 -7.65374 -12.2533 -0.00205884 -0.00164791 0.00159699 -1 0 0
1155 1 6.56228 -7.7594 -16.1908 -0.00399065 0.00594544 -0.00441456 0 0 1
1153 2 6.07567 -7.51046 -15.4052 -0.00209103 0.00734388 -0.00349372 0 0 1
1068 1 8.16399 -4.22223 -8.58646 -0.0200309 0.0053387 0.00231343 -1 0 0
1262 1 -1.01826 -1.55073 -9.98024 0.0108442 -0.0067593 -0.00791719 0 0 1
1066 2 7.80371 -4.82148 -9.24 -0.00272377 -0.00325973 0.000503651 -1 0 0
957 1 1.50994 -2.19831 -15.1615 -0.019594 -0.014139 0.0137368 0 0 1
1350 1 5.5258 -3.52955 -14.9388 -0.00523124 -0.0103049 0.00119104 0 0 1
1348 2 5.95541 -2.83439 -15.4371 -0.00631844 -0.00694236 0.0048304 0 0 1
818 1 1.14127 1.27335 -14.9967 0.00716458 0.00254499 -0.00205269 0 0 1
10 2 4.81089 -0.858178 -13.1584 0.000177632 -0.00259865 -0.00745836 0 0 0
12 1 5.46913 -1.52833 -12.9744 -0.00119051 -0.00239011 -0.00177469 0 0 0
11 1 4.74569 -0.841548 -14.1129 -0.007981 -0.018411 -0.00742169 0 0 0
1177 2 -9.84937 -1.17427 -14.7068 -0.000772732 0.00154379 0.00105343 1 0 1
659 1 4.51626 -9.69102 -13.2459 0.00516739 0.0276999 0.00551013 0 0 0
884 1 -0.195446 -7.46626 -14.5175 0.00631444 -0.000572418 -0.0249564 0 0 1
908 1 1.97059 -1.26175 -11.9591 -0.00754888 0.00236424 -0.0147689 0 0 1
907 2 2.45959 -0.450808 -12.0986 0.00311382 -0.000232174 0.00759949 0 0 1
4 2 7.30487 -1.1915 -10.1255 -0.000127938 0.00218944 -0.00283136 0 0 0
5 1 7.4944 -0.424491 -10.6658 0.0202524 0.00211212 0.00407152 0 0 0
293 1 2.35884 -5.53006 -6.15533 -0.00159666 -0.00484502 0.000135356 0 0 0
224 1 -0.32195 -4.02041 -9.24871 0.0037488 0.00390747 0.00963149 0 -1 0
48 1 8.59254 0.939801 -11.7835 -0.00450756 0.00288545 -0.00193386 0 0 0
1130 1 3.23821 -2.93823 16.425 -0.00536993 0.00525304 -0.0203801 0 0 0
1154 1 5.7414 -8.33742 -15.058 -0.0135503 0.00952769 -0.00922662 0 0 1
1143 1 5.02338 -2.0195 -16.7946 -0.0207437 -0.00313072 0.00930175 -1 0 1
609 1 -2.85814 8.95112 -10.6177 -0.00588457 -0.0270505 -0.0037095 0 -1 0
691 2 -8.81654 8.99309 -7.64858 -0.00200248 -0.0024007 -0.00367923 1 0 0
693 1 -8.15965 8.93575 -8.34226 0.000137746 -0.0102085 -0.00119509 1 0 0
979 2 -7.18002 8.82838 -9.86592 -0.000746836 0.00253562 0.00217055 0 -1 1
252 1 -1.10208 -9.95082 -14.8852 -0.0114982 -0.000366369 -0.00261406 0 0 0
980 1 -7.22669 8.23159 -10.6126 -0.0199505 0.00360978 0.00232282 0 -1 1
608 1 -2.36595 8.30459 -11.8948 0.00911494 0.00338217 -0.0136083 0 -1 0
426 1 -4.84416 2.7799 -14.4646 0.00673608 0.00411225 0.00171135 0 0 0
1420 2 -1.35467 0.153908 -12.4644 -0.00136511 -0.00144831 -0.000669421 0 0 1
1422 1 -1.68576 -0.474106 -11.8225 -0.0187887 -0.00224024 -0.0102319 0 0 1
424 2 -4.77195 2.2504 -13.6707 0.00218909 0.00429935 0.00243978 0 0 0
425 1 -5.01185 1.36651 -13.9488 -0.00195659 0.00538686 0.00249511 0 0 0
514 2 -7.94872 1.29533 -15.7318 -0.00480451 0.00399766 -0.00128591 0 0 0
206 1 -0.188017 7.37385 -9.75497 0.00938101 0.00363579 -0.00797499 0 -1 0
205 2 -0.581335 8.14816 -9.35259 0.00581042 -0.00350948 0.0023701 0 -1 0
109 2 -8.58422 5.63908 -14.5319 -0.00318348 0.00278755 -0.00587409 0 0 0
111 1 -8.24227 4.92949 -15.0757 0.00867375 0.0131033 -0.0120033 0 0 0
110 1 -8.13356 6.4222 -14.8479 -0.018 0.0133516 -0.000874433 0 0 0
334 2 -2.40672 5.09201 -14.2312 0.00885903 -0.00304683 0.00640587 0 0 0
819 1 -0.092513 0.475864 -15.3622 0.0093888 -0.00174931 -0.000284667 0 0 1
336 1 -2.53199 4.3239 -13.6741 -0.00482003 0.000332567 0.00812162 0 0 0
335 1 -1.4568 5.19615 -14.2863 0.0106636 -0.0183159 0.00859447 0 0 0
251 1 -1.39455 8.88103 -13.943 0.00898167 -0.00580986 -0.00265664 0 -1 0
207 1 -0.869017 7.85015 -8.48988 0.023326 -0.01166 0.0055818 0 -1 0
412 2 -1.74643 -0.675395 -15.0924 -0.0020491 0.00296454 0.00771853 0 0 0
250 2 -1.43798 9.13308 -14.8652 -0.0101241 -0.000839844 -0.000600999 0 -1 0
1364 1 -4.93143 9.23166 -13.4366 0.00161439 0.0189066 -0.0169683 1 -1 1
1363 2 -5.23765 9.77374 -12.7097 0.000124601 -0.000268897 -0.00309153 1 -1 1
1365 1 -4.57239 9.66238 -12.0307 0.0087751 -0.00279516 -0.0118144 1 -1 1
239 1 -1.72367 7.84605 -15.9945 -0.013267 -0.0049676 0.00250436 0 -1 0
238 2 -1.75586 7.13076 -16.6296 -0.00253875 0.0028462 -0.00699621 0 -1 0
332 1 -5.61591 5.01239 -13.3569 0.0107878 0.0125292 0.000206588 0 -1 0
287 1 -3.91268 6.39595 -14.3629 0.0114131 -0.00202587 -0.0154134 0 0 0
286 2 -4.34733 7.2318 -14.5321 -0.00287571 -0.00484376 0.00735638 0 0 0
288 1 -4.93041 7.05396 -15.2699 -0.00072658 0.00504068 0.00309436 0 0 0
333 1 -4.90151 3.8495 -12.7019 -0.0200472 -0.0103668 -0.00670114 0 -1 0
331 2 -5.22466 4.73377 -12.5291 -0.00055315 -0.0045643 9.04506e-06 0 -1 0
153 1 -7.36 8.98854 -15.0204 -0.0175852 -0.00448602 -0.0103448 0 0 0
414 1 -2.20089 -1.31802 -15.637 -0.00530289 0.0157723 -0.00479076 0 0 0
1102 2 -0.754952 7.77926 -12.4385 -0.00130099 0.00121797 0.00409343 -1 0 1
1104 1 -0.169334 8.40621 -12.0141 -0.0142561 0.0154027 0.00115958 -1 0 1
481 2 -4.5769 8.38032 -9.09837 -0.00202773 0.00875419 -0.00685309 1 0 0
482 1 -4.5335 7.52187 -9.51946 0.00314709 0.00953333 -0.00801949 1 0 0
628 2 -7.4224 1.18321 -11.7549 -0.00130678 0.00289828 -0.000470054 0 0 0
630 1 -7.89222 1.8382 -11.2388 -8.44102e-05 -0.00988871 0.0170199 0 0 0
151 2 -7.39941 8.04152 -14.8869 0.00334779 -0.00431983 -0.00289564 0 0 0
247 2 -1.7517 5.09284 -11.0877 0.00349556 0.00878755 -0.000817931 0 0 0
248 1 -2.08729 4.40151 -11.6583 0.016917 0.00589519 -0.00533418 0 0 0
346 2 -4.77687 3.78477 -8.15092 0.00263679 0.00361864 -7.85929e-05 0 0 0
40 2 -2.36641 2.64407 -12.7005 0.00556505 -0.00545867 -0.00253183 0 -1 0
41 1 -3.23672 2.39516 -13.0116 -0.0026135 -0.00723513 0.0216788 0 -1 0
42 1 -1.93417 1.81246 -12.5061 0.0147196 -0.004804 -0.0201317 0 -1 0
249 1 -1.48549 4.63684 -10.2895 -0.0182828 0.0132628 0.00917923 0 0 0
182 1 -4.87242 5.44418 -10.7375 -0.00341382 -0.00748034 -0.00406254 0 -1 0
428 1 -7.66684 4.6546 -10.1141 -0.00897547 -0.00578365 0.0165391 1 -1 0
240 1 -2.27283 6.45013 -16.1987 0.0144533 -0.0136799 -0.0125979 0 -1 0
260 1 -8.24863 9.86892 -11.0295 -0.00539631 -0.00887943 -0.00306822 0 -1 0
779 1 -7.63852 2.96259 -16.2532 0.00361236 0.0019164 0.00786201 0 0 1
560 1 -8.0227 7.87354 -13.208 -0.00466508 -0.00899854 -0.00720093 0 0 0
770 1 -1.85862 2.36951 -16.5212 -0.00129019 0.00421295 0.00273015 0 0 1
769 2 -2.43215 1.6238 -16.3446 -0.00217935 0.00444662 0.000880811 0 0 1
1098 1 -0.432357 8.25927 14.9899 -0.0143324 -0.00192799 -0.00889972 0 0 0
780 1 -6.70997 4.15252 -16.3705 -0.00238369 0.00525319 -0.00573609 0 0 1
587 1 -0.613617 2.08257 -11.5784 0.0145666 0.00699664 -0.0274759 0 -1 0
170 1 -2.91776 0.638286 -9.57775 -0.015413 0.0129701 -0.0137537 0 -1 0
347 1 -3.92773 3.42572 -7.89358 0.00340949 -0.00856472 -0.0195341 0 0 0
171 1 -3.44547 -0.743634 -9.8997 0.0236457 -0.00548471 0.0014186 0 -1 0
79 2 -7.3762 0.533924 -8.46835 -0.00232084 0.00169267 8.95007e-06 1 0 0
778 2 -7.63436 3.90703 -16.4089 -0.00170668 0.0012535 0.0036475 0 0 1
629 1 -6.72914 1.67591 -12.194 -0.0196477 0.0186185 -0.0118955 0 0 0
152 1 -6.93912 7.67343 -15.6409 -0.0235356 -0.00149588 -0.020853 0 0 0
1421 1 -1.20236 -0.366815 -13.2528 0.0202063 -0.000509125 0.00266533 0 0 1
677 1 -9.6594 5.00567 -13.0675 -0.0056093 0.00506031 -0.00242832 0 0 0
676 2 -9.87554 4.5057 -12.2806 0.00284014 -0.000942451 -0.00372683 0 0 0
588 1 0.649894 2.89683 -11.7584 0.00633481 0.0292515 0.0152546 0 -1 0
586 2 -0.0113498 2.65931 -11.1085 0.00133341 -0.000906989 -0.000679837 0 -1 0
1096 2 -0.882373 8.99462 15.4057 0.000683424 0.00479274 -0.00446178 0 0 0
1097 1 -1.62144 9.18203 14.8271 0.00279226 0.0213434 -0.00192072 0 0 0
427 2 -7.8483 3.85358 -10.6055 -0.00272804 0.00301569 -0.000204574 1 -1 0
429 1 -8.40194 4.13842 -11.3324 -0.00219429 0.0143161 0.00364431 1 -1 0
181 2 -5.07557 5.81644 -9.87962 -0.00161353 -0.00586493 -0.00413022 0 -1 0
183 1 -5.10126 5.06219 -9.29098 0.00257482 -0.00442294 -0.00196684 0 -1 0
513 1 -8.18356 6.8664 -9.06515 -0.00347609 2.31895e-05 0.00388097 1 -1 0
611 1 -2.57337 9.07213 -17.3774 0.00788423 0.0132628 -0.00693716 0 -1 0
610 2 -3.20642 9.68843 17.3144 -0.00603272 -0.000766247 -0.00660209 0 -1 -1
413 1 -2.17639 0.155995 -15.2928 0.00522304 0.00976269 0.0202643 0 0 0
559 2 -8.39364 7.43739 -12.4411 0.000751373 0.00428853 0.00315699 0 0 0
1176 1 -3.74467 3.83902 -15.9544 0.000770361 0.00664583 0.00337276 1 0 1
561 1 -8.28945 6.5033 -12.6224 -0.00138344 0.00113395 0.0181417 0 0 0
771 1 -3.14765 1.71702 -16.9734 0.00970558 -0.00581022 -0.0142869 0 0 1
1263 1 -1.94736 -2.59812 -10.556 0.0101226 -0.0069252 -0.00658834 0 0 1
47 1 8.48213 1.63843 -10.4453 -0.00497926 -0.0022702 0.00104326 0 0 0
1108 2 0.955756 -9.32737 -8.67782 -0.00390804 0.00653025 -0.00449972 0 0 1
817 2 0.732058 0.802286 -15.7223 0.00734175 0.00180215 -0.00184525 0 0 1
118 2 0.638712 5.68539 -14.7549 0.000533097 0.00167674 -0.00540578 0 0 0
119 1 1.48445 6.09959 -14.5835 0.012469 -0.0151166 -0.0237552 0 0 0
1110 1 0.707236 -9.82774 -9.45485 -0.0157094 0.00106635 0.00261648 0 0 1
521 1 5.14403 0.654351 -11.9903 -0.00203343 -0.00132332 -0.0075953 0 -1 0
1179 1 9.5483 -1.70709 -14.619 0.0052133 -0.00609704 0.00855459 0 0 1
522 1 6.20093 1.55249 -11.3837 -0.00234751 -0.00699645 0.00148256 0 -1 0
520 2 5.32951 1.56937 -11.7792 -0.00199191 -0.00326018 0.000765499 0 -1 0
660 1 5.58156 9.45759 -13.9283 -0.0214543 -0.00299828 0.00115603 0 -1 0
650 1 7.76364 4.50661 -15.88 -0.00244909 -0.00283348 0.024324 0 0 0
1103 1 -0.780652 7.03211 -11.8409 -0.0048156 0.0134864 0.0194599 -1 0 1
72 1 9.16391 0.716163 -15.4433 0.0208159 -0.00876213 -0.00799031 0 0 0
120 1 0.00641467 6.4025 -14.7082 0.0165655 0.0153136 0.00191754 0 0 0
1287 1 9.85017 4.6803 16.8369 -0.00434546 0.00206348 -0.00884406 -1 0 0
509 1 5.15562 3.62646 -15.5212 0.0145717 0.00605893 -0.0153808 0 0 0
508 2 4.62805 3.18018 -16.1834 -0.000800873 -0.00271245 0.00264036 0 0 0
510 1 4.83768 2.25284 -16.0723 -0.016693 -0.00348062 0.0263328 0 0 0
1285 2 -9.43391 4.99492 16.8239 -0.00346083 -0.000291123 -0.00456098 0 0 0
1286 1 -9.0085 4.53264 -17.5141 -0.00506521 -0.0103833 -0.00990241 0 0 1
1384 2 -0.32518 3.32319 -17.0831 -0.00446364 0.00230652 0.00360841 0 0 1
1385 1 0.183455 2.57557 -17.397 -0.0120755 -0.00178558 0.000930113 0 0 1
1277 1 2.7664 8.02405 -11.1307 -0.00320733 -1.1808e-05 -0.0025387 0 0 1
1276 2 3.05874 8.76468 -11.6618 0.00571449 -0.00257154 -0.00132356 0 0 1
1278 1 2.95275 8.46826 -12.5655 -0.0112051 0.00555149 -0.00219437 0 0 1
71 1 -9.97137 1.78189 -15.6622 0.00483878 0.00371718 -0.024018 1 0 0
70 2 9.31088 1.55749 -15.8754 -9.87213e-05 -0.000312013 0.00127356 0 0 0
909 1 3.27002 -0.729597 -12.5248 0.00167272 0.000324162 0.00439129 0 0 1
464 1 -9.55633 1.49338 -9.062 -0.00231881 -0.00806702 0.00266353 1 0 0
1162 2 2.0544 2.24303 -13.3756 0.00279808 0.00897951 -0.000471312 0 -1 1
1163 1 2.72115 2.84739 -13.0495 0.0223694 -0.0151267 0.00423793 0 -1 1
1151 1 2.33416 8.31219 -15.0714 -0.0131245 -0.0167078 -0.00158261 0 -1 1
1136 1 4.39899 3.22995 -11.9006 0.0223445 0.00662995 0.0123101 0 -1 1
1135 2 3.97925 4.08858 -11.8477 0.00503026 -0.00107348 -0.000597817 0 -1 1
615 1 7.72282 5.38095 -13.7483 0.00487991 0.00695962 0.000205541 0 -1 0
613 2 7.79214 6.00682 -14.469 0.00329037 0.00355101 -0.00308073 0 -1 0
614 1 8.40746 6.66881 -14.1539 0.00146999 0.00677797 -0.00622608 0 -1 0
651 1 7.79859 2.9991 -15.7455 0.00521278 -0.00605876 -0.014154 0 0 0
1164 1 2.20823 1.43182 -12.8915 -0.0356177 0.0062094 0.00727437 0 -1 1
338 1 9.92066 5.17727 -10.6851 0.033943 -0.00232921 0.0065581 0 -1 0
678 1 9.6713 3.85906 -12.5755 0.0153843 -0.0123359 -0.00616971 -1 0 0
17 1 7.62816 -8.32292 -12.5197 0.00444279 0.00917529 -0.0102035 -1 0 0
350 1 9.35854 8.26483 -15.7563 -0.0137887 -0.0129873 0.00394609 0 0 0
351 1 -9.98 8.189 -14.5058 -0.00141406 -0.00679383 -0.00378459 1 0 0
1150 2 2.5529 7.85226 -14.2612 -0.00295864 -0.000216425 0.00523954 0 -1 1
1152 1 3.47202 7.60615 -14.3654 -0.00688878 -0.010455 -0.00521368 0 -1 1
1372 2 -9.60904 7.94415 17.3558 -0.00125325 -0.00286491 -0.00636867 1 -1 0
1376 1 4.51134 -9.80744 -10.744 -0.0112147 0.0225607 0.000456505 0 1 1
1377 1 5.77853 -9.35114 -11.4351 0.00701231 -0.0160254 0.00818506 0 1 1
349 2 9.38233 8.53946 -14.8399 -0.00198852 -0.00349809 0.00101818 0 0 0
1137 1 4.65552 4.70413 -12.1304 0.0017456 0.0111042 0.0181044 0 -1 1
1375 2 5.29091 -9.26698 -10.616 0.00244124 0.00207975 0.00381866 0 1 1
661 2 5.29736 9.53047 -16.6961 0.00105572 -2.24872e-05 0.00126618 0 -1 0
662 1 4.47166 9.91189 -16.9943 -0.00142199 0.0151974 0.0273774 0 -1 0
595 2 5.45347 7.62295 -14.6345 0.00231477 0.00245147 0.00188055 -1 -1 0
597 1 5.44 7.97636 -15.5238 -0.00768855 -0.0292804 -0.0108292 -1 -1 0
596 1 6.29736 7.17633 -14.5665 -0.00446547 -0.0102732 0.00243122 -1 -1 0
157 2 5.4863 6.37187 -12.1923 -0.000119893 0.00112921 -0.0048096 0 0 0
158 1 5.36096 6.66603 -13.0943 0.0102052 -0.0116851 -0.0106595 0 0 0
159 1 5.63328 7.17684 -11.6958 -0.00771473 0.00835393 -0.0141085 0 0 0
220 2 6.56001 8.21574 -10.4692 -0.00446722 0.0053952 -0.00620805 0 -1 0
222 1 7.50144 8.04277 -10.463 -0.00730408 -0.00995222 -0.00221017 0 -1 0
649 2 7.46754 3.70165 -16.3048 0.00550801 0.00641055 0.00121007 0 0 0
644 1 2.55636 5.45932 -11.4204 -0.00737867 0.00416558 -0.0105065 1 -1 0
59 1 6.74037 4.73006 -12.1265 -0.020192 -0.019939 -0.0121712 0 -1 0
58 2 7.42423 4.16092 -12.4795 0.00617483 6.19525e-05 0.0064097 0 -1 0
60 1 7.35034 3.35321 -11.9713 0.00957161 -0.00562213 -0.00199817 0 -1 0
221 1 6.4815 9.12666 -10.1859 0.00977697 0.00965715 -0.0158767 0 -1 0
643 2 2.09699 6.0844 -10.8597 0.00332932 0.00275504 -2.65212e-05 1 -1 0
645 1 2.61071 6.10509 -10.0525 0.00417822 -0.0187491 0.000177867 1 -1 0
463 2 10.02 2.20075 -9.26624 0.0041406 -0.00395148 -0.00249602 0 0 0
1083 1 3.30202 4.45323 -16.6541 -0.00742215 -0.0086656 0.00999112 0 0 1
1082 1 2.67225 5.56463 -17.4664 0.00941439 -0.0053009 0.00136117 0 0 1
1081 2 2.481 4.71404 -17.0713 -0.000688467 -0.00385921 -0.000352538 0 0 1
46 2 7.99171 1.45651 -11.2468 -0.00416209 0.00208164 -0.000645032 0 0 0
1109 1 0.23942 -8.70464 -8.55415 -0.000129397 0.0100563 -0.000287491 0 0 1
189 1 3.17673 3.43705 -9.82564 -0.00565509 -0.00161408 0.00103419 0 -1 0
465 1 -9.60892 2.9546 -9.4543 0.0111632 -0.0118674 -0.0134133 1 0 0
131 1 0.167809 4.04507 -9.72003 -0.00394416 0.000506177 0.00082213 0 -1 0
129 1 5.72858 5.2222 -9.39602 0.000788494 0.00130051 -0.00835657 0 0 0
1048 2 7.90087 1.3618 16.8607 -0.0031567 -0.00325531 0.00187634 0 0 0
1049 1 8.30643 1.55385 -17.3541 0.00768764 -0.0228526 0.00135317 0 0 1
1386 1 0.0951259 3.57048 -16.2596 -0.000665587 -0.00354931 0.00363165 0 0 1
663 1 5.94131 9.81515 -17.3444 -0.00765131 0.0178739 0.000293983 0 -1 0
1050 1 8.54551 0.822858 16.4023 -0.0180973 -0.0106996 -0.0105085 0 0 0
882 1 -0.330411 4.80054 17.0567 0.00132142 -0.00402848 -0.00868949 0 0 0
1334 1 -0.702726 1.89934 -9.36644 -0.013361 0.0116479 0.00999843 -1 -1 1
160 2 -6.18912 -8.50423 -7.9033 -0.00637024 0.000124085 0.00319438 1 1 0
161 1 -6.37552 -9.28346 -7.37971 -0.0180875 0.00480721 0.0061482 1 1 0
162 1 -6.51784 -7.77627 -7.37595 -0.0373551 0.00304115 -0.0200543 1 1 0
689 1 -8.92845 -5.53588 -6.80362 0.00493624 -0.0155204 0.0056069 1 1 0
31 2 -1.46895 -7.79163 -9.93056 0.00528191 0.00348911 -0.00412092 1 0 0
690 1 -7.60746 -4.79712 -6.83701 0.0102256 -0.0250321 0.00486384 1 1 0
688 2 -8.21213 -5.29207 -7.3897 -0.00535527 7.07056e-05 -0.000636616 1 1 0
281 1 -8.59989 -0.548503 -8.13726 -0.00448809 0.0053447 0.010333 1 0 0
280 2 -9.26068 -1.21594 -7.95261 -0.00421964 -0.000188156 -0.00855999 1 0 0
226 2 -4.10417 -6.38214 -7.09482 -0.00693302 -0.000376554 0.00285798 0 0 0
228 1 -3.99857 -7.21613 -7.55245 -0.0123588 0.000556603 -0.000198286 0 0 0
282 1 -8.99095 -1.59575 -7.11663 -0.017747 -0.00692268 -0.00703755 1 0 0
657 1 -8.77829 -6.72171 -3.51973 -0.00918181 0.000804998 -0.00646946 1 0 0
108 1 -4.39663 -7.787 -4.21404 -0.0182466 0.00407722 0.0210707 0 0 0
106 2 -4.7938 -6.98064 -4.543 -0.00696321 -0.000423525 -0.00371411 0 0 0
655 2 -8.27317 -5.925 -3.68199 0.00189759 -0.00503805 -0.000701208 1 0 0
656 1 -8.43157 -5.37931 -2.91189 -0.0135343 0.00346151 -0.00970685 1 0 0
461 1 -6.1805 -6.74525 -2.21569 -0.00186784 -0.000658468 0.00977941 0 1 0
460 2 -6.53882 -7.41106 -1.62886 2.59818e-05 -0.00717107 0.00368818 0 1 0
227 1 -4.52591 -6.61421 -6.26768 0.0105553 -0.0030822 0.0111926 0 0 0
462 1 -6.08203 -7.27072 -0.799693 -0.0120781 -0.00321685 0.00988635 0 1 0
107 1 -4.2471 -6.28077 -4.18598 -0.0227953 0.00472992 0.0104991 0 0 0
471 1 9.73863 8.74683 -7.77019 -0.00513972 -0.032656 -0.00903194 0 0 0
499 2 -8.35356 -2.15761 -5.45535 0.0043826 0.00387685 0.00366224 1 0 0
501 1 -7.69631 -2.84683 -5.35927 0.00601414 0.00724889 0.0167295 1 0 0
500 1 -8.88256 -2.21786 -4.6601 -0.00777077 0.00467817 -0.00416945 1 0 0
32 1 -2.1493 -8.44885 -10.0769 0.0190474 -0.0115474 -0.00073992 1 0 0
589 2 -6.25592 -4.24122 -5.81847 0.00207758 -0.000400561 0.000523853 1 0 0
591 1 -5.51666 -4.84296 -5.73113 0.00688278 0.00790515 0.0170331 1 0 0
623 1 -2.87102 -6.16111 -1.02383 0.0148132 0.00501541 -0.0204052 0 0 0
454 2 -3.07332 -0.446555 -1.78863 -0.00798462 -0.00144554 -0.00702246 0 0 0
674 1 -2.72514 -4.56023 -5.46851 0.014892 -0.0258584 0.00283762 0 1 0
673 2 -2.96465 -4.75462 -4.56261 0.00680302 -0.00913543 0.00452157 0 1 0
456 1 -2.63739 -1.2864 -1.64425 0.0245789 0.0165607 -0.000571467 0 0 0
622 2 -3.61265 -6.15726 -1.62882 -0.000929132 0.00237892 -0.0012426 0 0 0
139 2 -4.72261 -2.76942 -2.95595 -0.000556592 -0.000710751 0.00418459 0 0 0
141 1 -4.99169 -3.26476 -2.18255 -0.0179358 -0.00839765 -0.0066121 0 0 0
140 1 -4.66501 -1.86336 -2.65279 -0.022698 -0.00144693 0.0107032 0 0 0
821 1 9.87332 -1.5114 -2.72405 -0.0186641 -0.0163907 0.00692538 -1 0 0
675 1 -3.45617 -3.98562 -4.27412 0.027943 0.00803569 -0.00516235 0 1 0
820 2 10.0417 -2.28022 -3.26871 -0.00475106 -0.0053901 -0.00440382 -1 0 0
653 1 -9.08538 -8.61382 -5.67016 -0.0138705 0.0261983 -0.00625996 1 0 0
652 2 -8.22268 -8.21279 -5.77574 -0.00134368 0.00108767 0.000872719 1 0 0
654 1 -8.33296 -7.31802 -5.45416 0.0206825 0.00589919 -0.00490906 1 0 0
541 2 -5.55845 -4.15567 -0.601015 0.000370363 0.00648946 0.000553052 0 0 0