1422
Atoms. Timestep: 1832
H 1.83114 -0.358551 -14.4924
O 1.71003 0.591829 -14.3071
O 0.96471 -0.606082 -14.8691
H 1.05191 -0.19315 -8.86666
O 1.24808 -0.754154 -8.08731
O 0.579123 -0.831431 -9.43628
H -7.18366 -0.541033 -7.07767
O -7.2176 -1.34146 -6.51776
O -6.32451 -0.656661 -7.53134
H 5.10364 1.78769 -11.0746
O 4.64011 1.1683 -10.4727
O 5.2506 2.52515 -10.4464
H -5.71808 3.16263 -9.18706
O -5.90956 2.25783 -9.52433
O -4.77499 3.07074 -8.93898
H -8.94019 -1.66586 -12.8098
O -8.97666 -1.24731 -11.9239
O -9.89433 -1.77207 -13.0163
H -8.42086 -0.785506 -10.2096
O -7.98262 -1.60902 -9.91548
O -7.67032 -0.159152 -10.1937
H 2.68893 6.41643 -9.26661
O 2.75986 5.5163 -8.90413
O 2.07719 6.8131 -8.61827
H -0.661451 1.9287 -8.12793
O -0.0909946 1.25495 -8.55405
O -0.0523238 2.21508 -7.41177
H 9.24338 -6.47315 -6.20986
O 8.5686 -5.90492 -5.78536
O 9.23769 -6.09518 -7.10943
H 2.31062 -3.75996 -9.01076
O 2.33218 -4.68527 -8.675
O 2.08222 -3.89238 -9.95464
H -3.45811 -5.35364 -10.5157
O -3.74005 -4.67468 -11.1556
O -3.90402 -6.16026 -10.8739
H 3.72811 -5.42797 -12.3864
O 4.14395 -5.50522 -11.4925
O 4.48453 -5.04813 -12.8873
H -7.09079 -3.20962 -9.66349
O -6.51347 -3.91052 -9.31588
O -7.10613 -3.44535 -10.6165
H -3.03921 -1.87541 -10.1161
O -2.07213 -1.9768 -10.2145
O -3.37517 -2.3886 -10.8744
H 7.49807 -4.82871 -4.90134
O 7.12178 -4.0116 -5.29765
O 7.91494 -4.49162 -4.08331
H -6.08398 -7.02432 -6.403
O -5.90758 -6.48459 -7.20094
O -6.63355 -6.40475 -5.87945
H 1.47185 2.38852 -14.3388
O 0.898418 2.16423 -15.0994
O 1.24305 3.33169 -14.2186
H -2.8412 0.788821 -6.86538
O -3.28199 1.49781 -6.34893
O -2.11102 1.28072 -7.2979
H 4.86336 -5.61324 -9.96345
O 5.00123 -6.49537 -9.56505
O 5.45353 -5.06319 -9.40746
H -5.38408 -5.30298 -8.50912
O -5.07919 -4.58002 -7.91364
O -4.60172 -5.3935 -9.09748
H -4.33208 2.67641 -5.44693
O -4.41057 3.65389 -5.42668
O -5.252 2.41563 -5.64829
H 10.0564 3.20131 -14.7756
O 9.87786 3.88476 -15.4542
O -9.76437 3.76118 -14.0572
H 5.21476 3.57832 -8.94625
O 4.34931 3.7512 -8.51757
O 5.63939 4.45792 -8.88191
H 3.8669 -7.77436 -6.68063
O 3.19554 -7.1987 -7.10323
O 4.48532 -7.86818 -7.43698
H -1.28264 -9.40376 -8.82853
O -1.98246 9.89304 -8.7344
O -1.14011 -9.1715 -7.88641
H 3.70242 5.58242 -13.8056
O 3.91342 4.62777 -13.7211
O 4.43372 5.96188 -13.2711
H 4.108 2.87189 -13.4428
O 3.2182 2.49705 -13.6068
O 4.373 2.42854 -12.6077
H 6.10924 2.30187 -4.92969
O 6.16593 1.91161 -5.82666
O 6.27655 3.24491 -5.12703
H -0.480315 -1.4505 -15.5961
O -1.22556 -0.832684 -15.4418
O -0.701614 -1.73015 -16.5087
H 1.53104 -2.47979 18.4292
O 2.3293 -2.27727 -18.5952
O 1.54937 -3.46317 18.4705
H 7.96176 -0.394351 -6.53407
O 7.35931 0.258844 -6.95129
O 8.76168 -0.303518 -7.0966
H 3.89378 -2.03355 -14.8411
O 3.14437 -1.40948 -14.6817
O 4.38393 -1.91065 -14.0041
H 3.87289 -1.7784 -5.28142
O 3.57215 -1.1619 -4.58152
O 3.11043 -1.75742 -5.89836
H -5.0544 -0.435309 -12.5492
O -5.72313 -0.5501 -13.2616
O -4.70102 -1.33996 -12.4704
H -2.90561 3.34995 -9.06282
O -2.88033 3.31678 -10.0385
O -2.0748 2.8854 -8.82143
H -4.61676 -0.80753 -8.20004
O -4.01253 -1.22025 -8.8686
O -3.97543 -0.234363 -7.71904
H 2.86877 4.1747 -7.53894
O 2.95313 4.72129 -6.74573
O 2.19156 3.53283 -7.25064
H -2.62842 2.85181 -3.19964
O -3.15602 3.52583 -2.71774
O -3.21459 2.68014 -3.96788
H 3.77685 -2.10249 -17.603
O 3.86024 -1.97005 -16.6344
O 4.51104 -1.53195 -17.9121
H -5.78727 -0.519028 -3.91423
O -5.8176 0.38039 -3.54081
O -6.7195 -0.79107 -3.81671
H 1.04095 5.15575 -14.3726
O 1.9936 5.27264 -14.1684
O 0.747049 6.08389 -14.2688
H -4.2822 5.02125 -2.3937
O -4.31112 5.25235 -3.34405
O -5.22369 5.10824 -2.14315
H 7.7442 -7.81764 -16.8717
O 7.81068 -7.55069 -15.9302
O 8.30464 -7.12813 -17.2812
H -6.96625 -0.721347 -14.5053
O -7.49698 -0.0360627 -14.9631
O -7.67813 -1.15672 -13.9894
H 9.58597 5.1122 -16.8055
O 9.36736 6.03208 -17.068
O -9.94997 4.87173 -17.4895
H -7.10842 2.00435 -6.01855
O -8.08597 2.09398 -6.04919
O -7.02707 1.09246 -6.36983
H -8.20741 4.138 -8.16995
O -7.41291 3.61934 -8.40115
O -7.88896 4.6372 -7.39037
H 8.25543 6.39288 -2.5383
O 8.50299 5.44305 -2.41677
O 7.36715 6.39019 -2.11951
H -0.711035 4.76577 -4.21885
O -0.794326 5.51808 -3.59207
O -1.28288 4.09064 -3.80922
H 0.503992 7.85674 -14.555
O 0.401588 7.88748 -15.5317
O -0.33054 8.25061 -14.2674
H -6.90775 6.5376 -12.0086
O -6.62322 6.25413 -11.1139
O -7.51055 5.82549 -12.2918
H 3.16695 7.3024 -17.7259
O 3.64674 6.45309 -17.8307
O 3.36444 7.534 -16.7958
H 3.22719 8.03491 -15.0469
O 2.30101 8.09791 -14.7335
O 3.5007 7.20635 -14.6012
H 4.53763 -3.72211 -3.46737
O 4.27218 -3.14355 -4.21361
O 4.26108 -4.60231 -3.80244
H -6.91868 3.85076 -4.05708
O -6.47946 3.20892 -3.45862
O -7.0963 3.2438 -4.80544
H -5.41542 -9.76197 -7.24143
O -6.21171 -9.65853 -7.81059
O -5.37051 -8.85958 -6.88033
H -0.756182 -8.91097 -6.11783
O -0.208572 -9.6712 -5.82932
O -1.46319 -8.94363 -5.43946
H 3.63914 -6.22829 -4.32287
O 2.77058 -6.44333 -3.92475
O 3.64158 -6.79612 -5.12229
H 5.77707 -0.255232 -18.2881
O 6.06681 -0.209254 18.3472
O 5.38877 0.640927 -18.1847
H 0.549725 -7.02625 -17.3312
O -0.123828 -7.00058 -16.6204
O 0.0912055 -7.64354 -17.9497
H -4.91847 -3.20999 -6.86297
O -5.69253 -3.03475 -6.29225
O -4.75658 -2.3283 -7.2548
H -4.36252 -3.2521 -12.2417
O -5.33559 -3.40186 -12.244
O -4.13749 -3.63644 -13.1199
H 0.930186 -3.51046 -14.3575
O 0.537675 -2.72813 -14.8035
O 1.59897 -3.80324 -15.0046
H 0.157517 -3.49959 -2.76581
O -0.246986 -4.28972 -2.34937
O 1.03469 -3.49491 -2.32651
H 1.64355 -3.76359 -11.7133
O 1.36257 -3.51888 -12.6208
O 2.36394 -4.38636 -11.9495
H -7.35833 -2.88701 -5.55574
O -7.74743 -2.39814 -4.79412
O -7.29776 -3.78825 -5.16338
H -2.99124 -6.44218 -18.7032
O -3.27416 -6.62031 -17.7823
O -3.66816 -5.77855 18.6162
H -9.77748 -5.71318 -10.8669
O -9.08034 -5.87581 -10.1885
O -9.40657 -6.25652 -11.5908
H -7.73441 -5.02242 -14.6248
O -7.55178 -4.35633 -15.3275
O -8.39921 -5.55611 -15.1044
H 1.67652 -2.08308 -6.96052
O 1.95706 -2.71053 -7.66446
O 1.0691 -2.65184 -6.43887
H -0.809949 -6.01152 -11.1514
O -1.67168 -5.83236 -10.7184
O -0.313543 -6.4831 -10.4525
H -7.05653 -3.60092 -12.3931
O -7.75307 -2.93115 -12.5705
O -7.22418 -4.20422 -13.1519
H -3.73224 -4.37297 -14.6717
O -2.79628 -4.50664 -14.4074
O -3.64513 -3.89516 -15.5257
H 1.93658 -6.20236 -7.84551
O 1.3153 -6.22244 -7.08551
O 1.47208 -6.76943 -8.49974
H -3.54313 -3.13619 -17.1325
O -3.9628 -3.57503 -17.9043
O -2.68708 -2.85192 -17.5143
H 5.58652 9.42626 -1.46159
O 5.77729 9.47707 -2.42463
O 6.39075 9.84523 -1.0911
H -6.17654 1.82165 -2.36911
O -5.73697 1.4124 -1.60059
O -7.08906 1.90428 -2.019
H -0.246656 -2.39689 -10.1398
O 0.374208 -2.73062 -10.8201
O -0.243837 -3.13826 -9.52345
H -4.65421 -7.62631 -11.3343
O -5.47016 -8.16207 -11.3853
O -3.95373 -8.29659 -11.4556
H -2.63478 -4.66366 -6.34409
O -3.32722 -3.99441 -6.51793
O -1.86597 -4.09758 -6.16418
H -2.55451 0.375589 -15.6657
O -3.37345 0.0340219 -16.0792
O -2.94215 0.923257 -14.948
H 5.9933 1.31566 -7.54573
O 5.91553 2.14796 -8.05629
O 5.2574 0.819631 -7.96136
H 2.83792 -7.24984 -15.8082
O 2.05259 -7.24478 -16.3987
O 3.05894 -6.2934 -15.8273
H 0.032791 1.83516 -3.52416
O 0.364778 1.36716 -2.73429
O -0.88098 2.05053 -3.27303
H 3.14719 -4.44261 -15.9619
O 3.56919 -3.78598 -15.3692
O 3.37257 -4.04634 -16.8183
H -5.97668 0.600619 -10.1642
O -5.6137 0.291676 -11.0241
O -5.47331 0.047155 -9.53441
H -0.252037 1.72743 -16.4179
O -0.622345 2.63725 -16.453
O -1.06705 1.20759 -16.2487
H -8.41411 -1.38538 -3.50273
O -8.3451 -1.2414 -2.53468
O -9.3762 -1.26446 -3.6486
H -1.75563 -1.53999 -2.20138
O -2.50801 -1.88227 -2.72926
O -1.02743 -2.10387 -2.5347
H 2.0603 4.40806 -3.63823
O 1.13202 4.38519 -3.95039
O 1.9418 4.22024 -2.67972
H 7.13702 -3.11448 -15.7043
O 6.83982 -3.59174 -16.5059
O 7.48341 -2.29516 -16.1154
H 8.69059 3.79059 -2.08966
O 8.31296 3.41705 -1.26902
O 8.97877 2.98953 -2.57005
H 7.09391 5.4607 -15.5853
O 6.52664 4.66679 -15.6477
O 7.89987 5.15857 -16.0432
H 3.91061 0.235875 -9.1166
O 2.93515 0.206777 -9.0615
O 4.12234 -0.701458 -9.32195
H -3.93498 3.67736 -11.6785
O -3.90566 4.56413 -12.1029
O -4.78362 3.71834 -11.2193
H -9.41793 -1.12672 -17.2599
O -9.14721 -0.39379 -16.6673
O 9.80116 -1.12317 -17.1105
H -3.82671 1.78755 -13.6869
O -3.73676 2.43322 -12.954
O -4.24509 1.03589 -13.2173
H -1.50184 6.23751 -6.35764
O -1.71067 7.03109 -5.81456
O -1.11393 5.63835 -5.67895
H -4.25237 6.20349 -12.7448
O -5.19798 6.44584 -12.6695
O -3.85202 6.95922 -12.2491
H 1.08884 2.40915 -6.05736
O 0.554047 2.28089 -5.2438
O 1.95767 2.14834 -5.68839
H 4.64614 2.2214 -17.9447
O 4.94071 2.47128 -17.0398
O 3.69855 1.99808 -17.8158
H 3.69955 6.55861 -3.35996
O 3.15105 5.74376 -3.3927
O 3.81873 6.70421 -4.32072
H 8.87259 7.68158 -17.6486
O 8.85128 7.6855 -18.6288
O 8.09805 8.23784 -17.4188
H -7.2621 -5.38723 -4.40729
O -8.07405 -5.3116 -3.86958
O -6.75806 -6.01874 -3.85088
H 5.77035 3.0011 -15.5972
O 5.21116 2.93668 -14.7911
O 6.50512 2.38903 -15.3768
H -7.5943 5.84697 -5.98996
O -7.35036 5.21708 -5.28323
O -7.65068 6.67265 -5.46221
H -4.75846 3.43212 -15.7543
O -4.42617 2.84964 -15.0439
O -4.19323 4.22054 -15.6367
H -8.59625 1.11282 -15.8067
O -9.18198 1.7595 -15.3582
O -8.02425 1.72855 -16.3112
H 0.369405 -6.42746 -5.61552
O 0.653881 -6.62628 -4.69792
O -0.116544 -7.25117 -5.83695
H 2.66195 -7.81827 -13.1174
O 2.70396 -7.70187 -14.0917
O 2.95626 -6.92353 -12.8282
H -0.90876 4.35178 -16.1723
O -1.73568 4.73668 -15.8028
O -0.250637 4.65531 -15.511
H -1.25929 -4.93425 -13.6549
O -0.462521 -4.39155 -13.8486
O -1.0853 -5.19819 -12.7254
H -0.0273925 -3.67889 -5.52727
O 0.0350127 -3.56935 -4.55299
O 0.0914911 -4.65127 -5.60502
H -0.137542 -8.07373 -12.8781
O -0.262585 -7.28888 -12.3057
O 0.838135 -8.12007 -12.9247
H -3.09975 5.63759 -15.1761
O -2.8614 6.52876 -15.513
O -3.49714 5.86708 -14.3072
H -3.92482 -6.82129 -16.1547
O -4.13369 -6.0771 -15.5566
O -3.0636 -7.11133 -15.7866
H 6.19083 -6.76588 -3.5177
O 5.25077 -6.66249 -3.779
O 6.61243 -6.11581 -4.12354
H 4.58359 -2.36156 -9.69108
O 3.81459 -2.9095 -9.42809
O 5.31512 -2.88369 -9.29545
H -6.90143 2.74434 -17.2665
O -6.16204 3.07988 -16.7006
O -6.43261 2.03935 -17.7567
H -7.74915 -3.43367 -16.8324
O -8.33696 -2.69544 -17.0791
O -7.66599 -3.9435 -17.6592
H 6.45312 6.01263 -8.45207
O 5.94489 6.85318 -8.4981
O 7.31972 6.36609 -8.14785
H -7.61165 -9.14447 -8.74269
O -7.38008 -9.10632 -9.69844
O -8.46819 -9.6113 -8.77735
H -9.21769 5.09088 -12.906
O -9.51513 5.19743 -11.9807
O -9.46071 5.95866 -13.2956
H -7.89814 7.85408 -1.71887
O -7.56415 8.08578 -0.82899
O -7.56361 6.9321 -1.77134
H -3.66416 6.91706 -0.343103
O -3.53234 6.43843 0.495222
O -3.7771 6.18248 -0.981241
H -0.367134 5.50675 -18.603
O -0.690339 5.00776 -17.8211
O 0.421538 4.97065 18.7256
H 2.04869 4.19088 -0.913641
O 2.19502 3.38068 -0.377606
O 2.72584 4.77767 -0.515162
H 4.42482 4.936 -18.5243
O 4.711 4.02815 -18.2988
O 5.02584 5.13171 18.2963
H -8.71787 1.9004 -1.36196
O -8.64251 0.953834 -1.12239
O -9.38582 1.85551 -2.08371
H -5.81616 0.647042 -18.7042
O -5.5289 0.103751 -17.9334
O -4.93649 0.767897 18.4271
H -2.87395 0.820803 -1.26889
O -2.7562 1.41883 -2.03211
O -2.3899 0.0190088 -1.56658
H 1.94588 1.66834 -18.0606
O 1.18214 1.55834 -17.4511
O 1.6875 1.08431 18.7668
H 3.38995 2.19862 -4.60364
O 4.35784 2.33798 -4.67635
O 3.08003 3.04453 -4.21576
H -7.89602 -0.67329 -0.838807
O -6.97551 -0.490276 -0.573186
O -8.28817 -0.953322 0.0191315
H -4.97332 -0.803378 -16.5195
O -5.65687 -0.949204 -15.8324
O -4.6222 -1.70895 -16.6525
H -3.8167 -2.42719 -3.81687
O -4.54889 -1.76878 -3.84091
O -3.34794 -2.20386 -4.653
H -1.12942 -2.1336 -18.1829
O -1.51045 -1.68809 18.5997
O -0.215455 -2.28266 -18.4879
H 1.29664 0.40904 -1.32636
O 1.9966 0.139854 -1.95895
O 1.20577 -0.399829 -0.788104
H -3.5642 -4.96696 -2.82525
O -3.70965 -5.57293 -3.58285
O -3.69256 -4.08666 -3.2485
H -3.73033 -6.69639 -4.97559
O -3.25807 -6.05024 -5.55493
O -4.54884 -6.84771 -5.48681
H -2.25457 -1.71701 -5.91432
O -1.29718 -1.84484 -5.95122
O -2.36605 -0.799162 -6.24089
H 2.61897 -3.56934 -1.44356
O 3.03057 -4.3055 -0.938891
O 3.30848 -3.45148 -2.12827
H 3.34411 -0.0704359 -3.12963
O 3.22706 0.742849 -3.66991
O 4.2378 0.0947608 -2.76597
H -4.55338 -4.89108 -0.293024
O -5.48768 -5.16841 -0.372381
O -4.29603 -4.80317 -1.23787
H -2.65887 -9.02824 -4.11003
O -3.04042 -8.16903 -4.40063
O -3.02488 -9.05783 -3.19987
H -1.12338 -5.78873 -1.84972
O -1.44016 -6.24269 -1.04864
O -1.98235 -5.50564 -2.23277
H 1.19332 -6.77009 -3.00431
O 0.348993 -6.44163 -2.62687
O 1.57868 -7.16241 -2.19122
H 2.06028 -7.69196 -0.541628
O 2.35446 -8.63001 -0.563552
O 1.51512 -7.68759 0.275253
H -7.0139 -6.22928 -0.654164
O -6.72747 -6.73294 -1.44561
O -6.77613 -6.85992 0.0582032
H -1.41312 -9.36866 0.608148
O -1.58177 -9.97279 -0.152502
O -1.91839 -8.58209 0.33187
H -2.12261 8.04586 -16.1859
O -1.29356 8.03474 -16.703
O -2.59047 8.79084 -16.5781
H -8.55597 4.39888 -18.657
O -7.95009 3.86935 -18.086
O -8.97093 3.67491 18.3951
H -9.61988 5.51142 -10.1823
O -9.22931 4.77876 -9.6671
O -9.24251 6.25975 -9.6811
H 8.80246 7.09889 -7.62202
O 8.57188 7.34412 -6.7002
O 9.23422 7.90451 -7.95793
H 7.63985 7.07044 -5.09715
O 7.12605 6.25565 -5.26601
O 8.02999 6.85138 -4.22081
H 7.61714 3.08434 0.358061
O 6.68829 3.27046 0.610724
O 8.12291 3.6554 0.96602
H 7.90367 1.38647 -14.9426
O 8.67056 1.96285 -14.7394
O 7.66758 1.0219 -14.0613
H 6.83647 0.21264 -12.6815
O 6.17787 -0.513353 -12.6055
O 6.40466 0.87052 -12.0996
H -9.87281 2.11115 -6.04563
O -10.0075 1.45253 -6.75914
O 9.84061 2.88972 -6.41451
H 5.90591 5.0088 -5.88793
O 5.10474 5.57014 -5.89608
O 6.18234 5.08955 -6.8192
H 8.0293 -0.721154 -16.7298
O 7.25126 -0.548582 -17.3024
O 7.99486 0.0607647 -16.1357
H 6.49985 -4.39482 -18.1561
O 6.17421 -3.94999 18.608
O 6.20536 -5.30899 -18.3501
H 5.15463 -1.90199 -12.3585
O 5.43148 -2.81143 -12.5963
O 4.88844 -2.02414 -11.4213
H -9.80953 0.046628 -7.88246
O -9.67224 -0.194038 -8.81899
O -8.93555 -0.224173 -7.53342
H 6.03289 0.51687 -2.66511
O 6.4213 -0.332279 -2.94513
O 6.22491 1.11319 -3.41939
H 6.79023 -2.24397 -2.77816
O 6.00641 -2.76867 -3.05649
O 7.40985 -2.96792 -2.52927
H 5.96949 -7.04532 18.7656
O 6.45611 -7.47025 -18.0654
O 5.15534 -7.56122 18.7335
H 5.95804 -4.26947 -13.4746
O 6.80952 -4.56953 -13.0908
O 6.27391 -3.92246 -14.3374
H 6.44848 -3.97795 -8.44425
O 7.36762 -4.32629 -8.50371
O 6.46604 -3.58184 -7.54897
H 6.40859 -2.59864 -6.04563
O 5.52598 -2.22354 -5.83535
O 6.92773 -1.78813 -6.24053
H -9.24438 -5.61169 -2.36797
O -8.61941 -5.83603 -1.65076
O -9.39276 -6.4757 -2.80634
H 8.05714 -9.51979 -0.727579
O 8.69836 9.71656 -0.775358
O 8.19099 -9.13177 -1.6196
H 8.20309 -6.895 -14.3111
O 8.27701 -6.15452 -13.6704
O 7.38576 -7.33626 -13.9768
H -7.83102 -6.39571 -9.13958
O -7.76842 -7.32394 -8.84543
O -6.91995 -6.07872 -8.99914
H -9.0853 -3.37092 -7.75722
O -8.40735 -3.31371 -8.45763
O -8.55576 -3.22043 -6.9567
H 6.58101 -6.00777 -0.924483
O 5.6583 -5.75206 -0.720904
O 6.46004 -6.35927 -1.83307
H 9.03232 -5.48824 -17.7684
O 9.39829 -5.195 -18.6279
O 8.20762 -4.96142 -17.763
H -8.53997 -7.09974 -12.9551
O -9.07317 -7.39847 -13.705
O -8.03181 -6.37696 -13.3764
H 5.75101 6.78963 -12.4697
O 6.27261 7.23763 -13.1626
O 6.47559 6.41577 -11.9264
H -7.52258 -9.09104 -4.80186
O -8.36954 -8.64334 -4.57108
O -7.24516 -8.58389 -5.58256
H -7.03243 5.27576 -1.70913
O -7.25476 4.7751 -2.52124
O -7.59961 4.84651 -1.03674
H -4.12468 5.43218 -5.18982
O -4.58739 6.26692 -5.41581
O -3.3034 5.55206 -5.69182
H -0.583959 6.92402 -2.58174
O -0.574033 6.34613 -1.78514
O 0.280886 7.38415 -2.51293
H 1.73175 8.3403 -2.63897
O 2.52323 7.79397 -2.83017
O 2.08839 8.95126 -1.95908
H 8.01503 -8.75316 -3.33895
O 7.3675 -8.01763 -3.42745
O 7.48953 -9.48262 -3.73123
H -7.46948 8.16084 -4.43741
O -7.57051 9.12815 -4.58503
O -7.67789 8.11039 -3.47942
H -5.01747 8.01782 -5.6358
O -5.86986 8.02227 -5.14938
O -5.15993 8.79599 -6.2179
H 1.17173 7.11293 -7.02045
O 0.297345 6.68677 -7.07522
O 0.958076 7.83851 -6.39339
H 3.75402 6.79065 -6.07627
O 2.86071 6.87792 -6.4743
O 4.06039 7.72063 -6.16334
H 4.50599 9.45437 -6.23392
O 4.17522 -9.60742 -6.31944
O 4.85713 9.28657 -7.13618
H -8.09112 7.15518 -8.46502
O -7.9941 6.79363 -7.56166
O -7.25535 6.83267 -8.86522
H -5.89857 5.86948 -9.52315
O -5.9206 4.90321 -9.35682
O -5.01811 6.08551 -9.14869
H -3.39499 5.97497 -8.31214
O -3.21601 5.05419 -8.59907
O -2.62064 6.11164 -7.72584
H 0.772339 -7.81362 -9.69748
O 0.133406 -8.50749 -9.42331
O 1.53664 -8.34906 -9.99986
H 5.14833 -8.20251 -9.06628
O 5.96511 -8.67199 -9.33843
O 4.4717 -8.5891 -9.6617
H 7.41925 -9.76283 -9.66151
O 7.64885 9.80024 -10.5264
O 8.31089 -9.6586 -9.29588
H -7.15393 -8.94071 -11.4241
O -7.63428 -8.2701 -11.9564
O -7.6357 -9.75806 -11.6723
H -8.62377 -8.70839 -17.2186
O -7.69392 -8.41574 -17.3377
O -8.9588 -8.01266 -16.6172
H -2.2942 -9.15206 -11.4557
O -1.55526 -8.86049 -12.0269
O -1.87794 -9.1396 -10.5708
H 3.06274 -9.14806 -10.699
O 2.94083 -8.81955 -11.6137
O 3.28202 9.88551 -10.8528
H 5.82494 -8.08174 -13.7389
O 5.05291 -7.94837 -13.1791
O 5.45905 -8.65477 -14.4413
H -9.86141 7.56951 -13.9496
O 9.37615 7.6716 -14.1517
O -9.45548 7.90688 -14.7782
H -6.10342 -7.64506 -17.7142
O -5.63385 -8.18792 -18.385
O -5.37234 -7.43134 -17.0953
H -1.31473 -7.1524 -15.2258
O -0.964058 -7.74084 -14.5275
O -1.31412 -6.30552 -14.7303
H 0.420711 7.7541 -17.2873
O 1.36381 7.79574 -17.5468
O 0.137041 6.97703 -17.8134
H 7.5647 7.83657 -14.3968
O 7.37521 6.97568 -14.8478
O 7.36813 8.45837 -15.1314
H -6.23422 -7.49252 -2.93889
O -6.60552 -8.20818 -3.49408
O -5.40255 -7.91556 -2.62676
H -4.08068 -8.67862 -1.76676
O -3.63035 -8.10192 -1.11896
O -4.32946 -9.43827 -1.19712
H -7.82227 7.13746 -18.4397
O -8.15576 7.5301 -17.6071
O -8.11834 6.20922 -18.3716
H 5.71751 6.69368 -1.54302
O 5.03135 6.59296 -2.24067
O 5.68355 7.66296 -1.4045
H 8.54573 -2.02183 -13.3423
O 8.01186 -1.24591 -13.0813
O 8.09024 -2.31214 -14.1541
H 9.72496 1.5981 -3.41327
O 9.94626 1.86544 -4.33341
O 9.42419 0.679413 -3.57345
H 9.37618 4.36124 -7.30385
O -9.91772 4.29826 -7.69145
O 9.19355 5.31403 -7.39462
H 8.50601 -4.7521 -12.6065
O 9.12906 -5.01994 -11.8955
O 8.72819 -3.806 -12.7123
H 9.01835 -0.973934 -4.02582
O 8.28823 -1.47027 -3.61113
O 8.67445 -0.848912 -4.93737
H 8.15626 8.73247 -11.7946
O 7.98933 8.61077 -12.7464
O 8.16689 7.80712 -11.4816
H 7.93223 6.1264 -10.8743
O 7.45104 5.87438 -10.0658
O 8.83801 5.82125 -10.6549
H 8.43786 -4.36173 -2.3245
O 9.36265 -4.69256 -2.28405
O 8.0038 -4.92631 -1.65423
H 9.02187 -4.92831 -8.54629
O 9.40377 -5.23312 -9.39278
O 9.73331 -4.31866 -8.23776
H -9.6928 -6.60446 -15.7369
O 9.68362 -6.71844 -15.1924
O -10.0731 -6.08774 -16.4835
H -9.76512 -7.71708 -4.11187
O 9.6083 -8.17869 -3.81331
O 10.0694 -7.26979 -4.91923
H -3.3863 8.80765 -8.57565
O -3.52645 7.87186 -8.33551
O -4.11729 9.26137 -8.10675
H 7.02424 9.5074 -16.5525
O 6.09818 9.74809 -16.3349
O 7.38757 -9.57785 -16.7233
H 0.355012 8.7917 -5.00573
O 0.864893 8.73316 -4.16932
O -0.534121 8.51358 -4.70686
H -9.81642 9.10564 -9.21852
O -9.66733 9.05666 -10.1849
O -9.16485 8.43456 -8.91478
H -2.4032 8.35531 -4.87937
O -2.48179 9.26701 -4.52157
O -3.34766 8.18923 -5.08394
H -2.07805 8.88297 -1.37579
O -1.5846 8.34731 -2.02443
O -2.66747 8.19117 -1.01346
H 9.61746 8.26904 -1.12147
O -9.63394 8.19141 -1.40281
O 9.19458 7.61014 -1.71837
H 6.27822 9.27049 -4.13794
O 5.59627 9.39139 -4.83444
O 6.77443 8.51075 -4.51155
H 5.47826 8.58622 -8.65112
O 6.19916 9.16169 -8.98992
O 4.8904 8.54111 -9.43568
H -8.59816 8.707 -11.7568
O -9.17546 8.43626 -12.5009
O -7.89689 8.02621 -11.8416
H -9.07513 8.61178 -16.4079
O -8.90312 9.53936 -16.6792
O -9.91443 8.41855 -16.8762
H -3.37698 8.31682 -11.317
O -3.02837 9.19426 -11.5695
O -3.39029 8.41926 -10.3474
H 3.93481 8.22678 -10.8953
O 4.47865 7.70339 -11.52
O 3.41387 7.5177 -10.4489
H 4.53865 -9.56161 -15.7024
O 3.85287 -8.87943 -15.8497
O 4.00359 9.62618 -15.4758
H -4.9379 9.39804 0.0747818
O -4.37783 8.61153 -0.0785537
O -5.74274 8.93957 0.39907
H 2.99395 9.70279 -0.606837
O 2.94303 9.05855 0.131643
O 3.94417 9.64416 -0.854562
H 2.21093 -0.0077821 4.62587
O 1.79171 0.828228 4.91656
O 1.50466 -0.395717 4.07335
H 1.30425 -0.229207 10.5398
O 1.57746 -0.713921 11.3387
O 0.741328 -0.898084 10.0945
H -7.15012 -0.499007 11.704
O -6.94255 -1.19434 12.364
O -6.25732 -0.339459 11.3326
H 5.39995 2.14135 8.34783
O 4.88435 1.4883 8.8646
O 5.38323 2.8868 8.97677
H -4.01677 3.33274 7.76672
O -4.40302 2.4604 8.00498
O -3.0903 3.25485 8.07722
H -8.49473 -1.63984 5.8084
O -8.34638 -1.04021 6.56846
O -9.47543 -1.55645 5.7304
H -7.73669 -0.216927 8.07316
O -7.40979 -1.09182 8.37642
O -6.91731 0.31551 8.06917
H 1.8913 6.95593 10.0677
O 2.07027 6.08069 10.4588
O 1.2303 7.3214 10.6837
H -0.100097 2.19818 10.6402
O 0.345329 1.3518 10.4242
O 0.411964 2.43851 11.4389
H 8.53965 -6.44895 12.2126
O 8.38868 -5.88327 13.0043
O 8.80065 -5.77376 11.5509
H 2.67923 -3.20901 10.0485
O 2.34921 -4.06729 10.4139
O 2.18717 -3.19546 9.20049
H -3.70802 -5.1556 8.21492
O -4.01792 -4.56545 7.49465
O -3.97471 -6.03497 7.85027
H 3.69424 -4.91469 6.94403
O 4.3504 -5.08562 7.65606
O 4.26437 -4.46739 6.28717
H -7.05566 -2.77892 8.78145
O -6.44046 -3.3653 9.26174
O -7.21672 -3.30896 7.97094
H -2.76608 -1.02643 8.86438
O -1.86869 -1.38268 9.03932
O -2.83967 -1.13911 7.90693
H 7.76747 -5.08732 14.4114
O 7.25085 -4.32721 14.0735
O 7.05335 -5.58758 14.8485
H -5.44805 -6.36048 12.2668
O -5.61872 -5.74196 11.5276
O -5.93198 -5.92154 13.0006
H 1.18459 2.47107 5.13184
O 0.863489 2.50454 4.2086
O 0.709877 3.22374 5.53265
H -2.6372 1.62336 11.7296
O -2.96682 2.39363 12.241
O -1.84035 1.97736 11.2827
H 5.58052 -5.45432 8.86427
O 5.24342 -6.15606 9.46133
O 5.84724 -4.76841 9.5143
H -5.41787 -4.51897 10.2143
O -4.94211 -3.85846 10.7677
O -4.71111 -4.75826 9.56635
H -3.8063 3.48586 13.4276
O -3.77083 4.4637 13.412
O -4.75106 3.36601 13.645
H -9.52133 3.19164 4.00297
O -9.91052 3.82434 3.37285
O -9.15105 3.79492 4.68487
H 4.893 4.04922 10.4475
O 3.96613 4.23671 10.6939
O 5.20086 4.92072 10.1168
H 6.0011 -7.46188 12.7673
O 5.47975 -7.59045 11.9477
O 6.85132 -7.14987 12.3934
H -2.08991 -9.05598 10.078
O -2.06558 -9.98235 10.3947
O -2.92098 -8.76284 10.5003
H 2.74252 5.8458 6.14315
O 3.08055 4.91963 6.21057
O 3.47573 6.31353 6.59521
H 3.59101 3.33039 6.49947
O 2.96891 2.70705 6.08647
O 4.21417 2.75483 6.97795
H 6.27503 2.46009 14.265
O 6.11116 1.85421 13.5058
O 6.39083 3.30241 13.7803
H 0.332009 -1.19364 2.9823
O -0.481403 -0.668474 2.81816
O 0.599255 -1.40448 2.07199
H 1.49643 -1.83874 0.382291
O 2.29404 -1.71918 0.948216
O 1.86182 -2.48292 -0.265193
H 7.49848 -1.04027 12.4904
O 6.89667 -0.272803 12.3682
O 7.90806 -1.08546 11.614
H 4.80388 -0.130422 3.9906
O 3.84887 -0.0471387 4.23061
O 5.13752 -0.541948 4.81089
H 3.71064 -2.6709 14.9273
O 3.71295 -1.77958 15.3462
O 3.20008 -2.47009 14.1095
H -4.47593 -0.917644 6.28938
O -5.12135 -0.799056 5.55698
O -4.48865 -1.899 6.34309
H -1.34529 3.76638 8.58714
O -0.760532 4.00624 7.8374
O -0.767096 3.1927 9.13157
H -4.44457 -0.203256 10.7927
O -3.78941 -0.563844 10.1441
O -3.88495 0.494862 11.2067
H 2.47412 4.78362 11.7526
O 2.44487 5.38185 12.5169
O 2.02391 3.98928 12.1103
H -2.49514 3.03974 15.8451
O -3.07144 3.75476 16.2063
O -2.89903 2.95559 14.9553
H 3.84546 -1.70009 1.82384
O 4.23494 -1.07849 2.47436
O 4.58767 -1.80272 1.19071
H -5.80422 0.164627 14.8594
O -5.96667 0.89396 15.481
O -6.65711 -0.310222 14.9138
H 0.14297 4.84791 6.30463
O 1.04153 5.23191 6.38507
O -0.238504 5.45214 5.64618
H -4.14048 5.19826 16.1903
O -4.03419 5.7132 15.3662
O -5.08691 5.32955 16.3813
H 4.95531 -6.52262 2.13204
O 4.67253 -6.94063 2.96964
O 5.74552 -7.05874 1.91911
H -6.36056 -0.758877 4.28186
O -6.88232 -0.0472883 3.85314
O -7.09201 -1.22699 4.74013
H 9.39972 4.77302 1.8758
O 9.29348 5.74182 1.74467
O -10.018 4.59117 1.2931
H -7.9673 2.03013 12.7075
O -8.86704 1.78529 13.0176
O -7.63605 1.16283 12.4002
H -8.72845 4.22128 11.1326
O -8.44099 3.37643 11.5353
O -8.21688 4.85708 11.672
H 8.48705 4.95342 16.1433
O 8.62906 3.98889 16.1539
O 7.56207 5.00885 16.4719
H -0.625694 4.99488 15.1708
O -0.910978 5.74794 15.7296
O -1.22637 4.29016 15.4848
H -0.494491 7.36827 4.70068
O -0.952862 7.82873 3.97009
O -1.10279 7.56401 5.44102
H -6.33032 6.6026 6.55192
O -5.94487 6.25883 7.38396
O -6.98417 5.91345 6.31994
H 2.85301 7.80345 1.37933
O 3.31776 6.98485 1.08322
O 2.6133 7.56148 2.30511
H 2.21783 7.47272 4.02424
O 1.25807 7.52399 4.22301
O 2.47903 6.83829 4.72896
H 5.62416 -3.85027 16.7335
O 4.93406 -3.40109 16.212
O 5.58882 -4.74407 16.3334
H -6.46783 3.60188 14.3111
O -6.44389 2.98822 15.0782
O -7.00692 3.06432 13.6833
H -4.64346 -8.82077 11.3431
O -5.32809 -8.75878 10.6376
O -4.8092 -7.96072 11.7857
H -0.287479 -7.92308 14.4984
O -0.140618 -8.88203 14.3983
O -1.23702 -7.88876 14.7161
H 2.82263 -5.24332 15.8485
O 2.35459 -5.23092 16.7086
O 2.9641 -4.29638 15.6605
H 5.91284 -2.0366 -0.000158402
O 6.08285 -2.16953 -0.94691
O 6.39659 -1.19382 0.134755
H 0.49214 -7.76811 1.75373
O -0.0721868 -7.55981 2.52876
O -0.0741763 -8.455 1.3432
H -4.32201 -2.69774 11.9374
O -4.99157 -2.66479 12.6534
O -4.34599 -1.77021 11.6279
H -4.8187 -3.65496 6.20475
O -5.77273 -3.88956 6.20647
O -4.51707 -4.10022 5.38117
H 0.885609 -3.1345 4.88626
O 0.613353 -2.39218 4.30492
O 1.71648 -3.39913 4.43795
H 0.0256137 -2.8872 16.1085
O -0.423477 -3.68857 16.4565
O 0.685192 -2.7254 16.8067
H 1.44444 -3.41919 7.60063
O 1.15235 -3.16551 6.69973
O 2.17864 -4.02364 7.36411
H -6.61155 -2.60659 13.5077
O -7.16407 -2.18781 14.2007
O -6.59557 -3.53107 13.8366
H -2.87997 -7.02272 0.110587
O -3.09412 -7.13966 1.06435
O -3.41916 -6.21729 -0.0509022
H -10.087 -5.86404 8.29897
O -9.28742 -5.9166 8.87502
O -9.66976 -6.02363 7.43276
H -8.83192 -6.25969 3.05662
O -8.65499 -5.42372 2.56476
O -9.81648 -6.28162 3.03318
H 2.34056 -2.08566 12.5559
O 2.55877 -2.52236 11.7057
O 1.46583 -2.48258 12.7605
H -1.03981 -5.69006 7.80595
O -1.93411 -5.4381 8.12234
O -0.635244 -6.03362 8.63019
H -7.50956 -4.14111 6.41131
O -7.98803 -3.36673 6.03943
O -8.07418 -4.88634 6.14246
H -3.66915 -4.80771 4.00539
O -2.76109 -4.77808 4.3789
O -3.57671 -4.22675 3.21727
H 1.54726 -5.38182 11.0943
O 1.39493 -5.57868 12.0412
O 0.974142 -6.04864 10.6643
H -3.44081 -3.34487 1.71231
O -3.85945 -3.87077 0.996703
O -2.59997 -3.07434 1.27257
H 6.47112 8.19316 16.9411
O 6.51519 8.57047 16.0369
O 7.42692 8.09554 17.1298
H -6.72865 2.13941 16.6005
O -6.3277 1.74921 17.4015
O -7.67337 2.1562 16.8593
H -0.342932 -2.24874 9.4279
O 0.171298 -2.765 8.77187
O -0.739662 -2.95213 9.98222
H -4.43984 -7.54618 7.19835
O -5.32889 -7.8849 6.97022
O -3.88071 -8.33616 7.09299
H -1.78861 -3.70403 11.3882
O -2.6042 -3.21327 11.6135
O -1.16746 -3.41353 12.0925
H -1.87319 0.406782 2.50277
O -2.6868 -0.00378634 2.15872
O -2.20296 0.67195 3.3951
H 5.91839 1.10979 11.9295
O 6.64959 1.4256 11.3566
O 5.1872 1.00076 11.2818
H 2.08119 -6.3675 3.71408
O 1.69903 -6.68944 2.87928
O 2.42294 -5.48202 3.47265
H -0.141209 1.45887 15.1662
O 0.336432 1.02709 15.9027
O -0.858747 1.92495 15.6316
H 3.19413 -3.80418 3.51248
O 4.0367 -3.81147 4.00655
O 3.37941 -3.10088 2.85483
H -5.16045 0.865195 8.26868
O -4.82283 0.197811 7.63172
O -4.91626 0.469733 9.12476
H 0.236859 2.27235 2.4822
O -0.207469 3.1513 2.49471
O -0.5316 1.67199 2.39063
H -8.18055 -1.15579 15.2749
O -8.29919 -0.958573 16.2284
O -9.11468 -1.20584 14.977
H -1.93224 -1.13002 16.9526
O -2.6662 -1.34872 16.3386
O -1.19303 -1.56655 16.4839
H 2.00747 4.24464 15.6695
O 1.09384 4.48449 15.4034
O 1.90506 4.22395 16.6477
H 7.50497 -2.41375 3.79489
O 7.16877 -3.03648 3.1091
O 7.93861 -1.75497 3.21325
H 8.49216 2.12874 15.8059
O 7.6197 2.26289 15.3678
O 9.02584 1.8922 15.0139
H 7.16035 5.03141 3.60191
O 6.637 4.21291 3.66298
O 7.91561 4.76002 3.05337
H 4.01794 0.450914 10.0024
O 3.05491 0.320939 10.1212
O 4.28868 -0.428049 9.66114
H -3.99272 3.66894 5.04783
O -3.96763 4.64636 5.00427
O -4.07583 3.55282 6.01803
H -8.94453 -1.17215 1.64692
O -8.59526 -0.456975 2.2196
O -9.90732 -1.05784 1.80946
H -2.99233 1.05487 4.85135
O -3.38322 1.93754 4.99136
O -3.4863 0.485745 5.46579
H -1.26311 5.74789 12.5964
O -0.59492 6.44143 12.441
O -0.929139 5.34584 13.4279
H -4.0587 6.43347 5.02246
O -4.91485 6.62257 5.46439
O -3.45053 6.95974 5.58722
H 1.31402 2.55265 13.0153
O 0.705942 2.23458 13.7158
O 2.15479 2.21881 13.3868
H 4.90852 3.16555 1.08519
O 5.20519 2.85068 1.96993
O 4.08422 2.64432 0.97364
H 4.179 5.41995 14.618
O 3.41556 4.97139 15.0481
O 3.71829 6.2089 14.2716
H 8.95876 7.52724 1.43858
O 9.10392 7.79147 0.504832
O 8.15697 8.03824 1.67203
H -6.55943 -5.21953 14.4983
O -7.4649 -5.38076 14.85
O -6.06432 -5.84685 15.0639
H 6.01528 2.30029 3.38416
O 5.50461 1.50116 3.63766
O 6.91574 1.99855 3.62678
H -7.10765 5.92805 12.6781
O -6.73746 5.30641 13.3318
O -7.12625 6.76635 13.1856
H -2.18789 3.12345 0.204788
O -2.35992 2.2319 -0.149598
O -2.80901 3.15579 0.956838
H -4.05631 3.58827 2.25976
O -4.00675 3.4074 3.22279
O -3.81919 4.53694 2.24714
H -7.99246 1.0735 3.01274
O -8.56676 1.73628 3.45312
O -7.46142 1.66083 2.436
H 1.07811 -5.73213 13.7743
O 1.7391 -5.71807 14.4955