ITEM: TIMESTEP
100000
ITEM: NUMBER OF ATOMS
1422
ITEM: BOX BOUNDS pp pp pp
-1.0093999999999999e+01 1.0093999999999999e+01
-9.9900000000000002e+00 9.9900000000000002e+00
-1.7530012171961602e+01 1.7530012171961602e+01
ITEM: ATOMS id type x y z vx vy vz ix iy iz
1376 1 -6.0926 -7.66897 -17.2477 -0.0139942 0.00911361 -0.012295 0 1 1
83 1 -0.31335 -5.32245 -16.708 -0.00145339 0.00574583 0.00274755 0 0 0
82 2 -0.944946 -5.38655 -15.9916 0.000154597 -0.00958738 0.00279296 0 0 0
84 1 -1.79438 -5.23604 -16.4063 -0.00179166 -0.0116405 0.0060382 0 0 0
1188 1 -5.38262 -3.57877 -12.6466 0.00436258 0.00441015 -0.00231078 1 2 1
1186 2 -5.13251 -3.66042 -11.7262 -0.00631245 -0.00553692 -0.00031648 1 2 1
161 1 -5.76874 -6.32897 -13.3544 -0.00511978 -0.0157485 0.00120544 1 1 0
162 1 -5.52357 -6.65075 -14.8133 0.0124793 -0.0136773 0.00370466 1 1 0
614 1 -3.85363 -2.57653 -14.6496 0.00101479 0.00648133 -0.00342217 1 0 0
613 2 -4.77841 -2.66884 -14.4204 0.00249172 0.0029137 0.00109038 1 0 0
615 1 -5.22372 -2.78098 -15.2603 0.000650744 -0.0142348 0.00435649 1 0 0
976 2 -1.84907 -8.44414 -15.4119 -0.00184275 -0.00750087 0.00304583 0 0 0
845 1 -7.39759 -2.66014 -15.0676 -0.00147501 0.000678212 -0.00600885 0 0 1
160 2 -5.21375 -6.09479 -14.0983 -0.00483774 -0.00528369 0.00470448 1 1 0
663 1 -8.06081 -4.489 -12.5144 -0.0113045 -0.00365001 0.0200607 1 0 0
661 2 -8.81931 -4.19732 -13.0202 0.00221534 0.00400344 0.00419133 1 0 0
662 1 -9.38917 -4.96524 -13.0626 -0.00419383 0.00944999 -0.00859064 1 0 0
822 1 -5.80666 -9.08157 -15.071 0.00575423 -0.0232365 -0.0159584 -1 0 0
360 1 -7.86799 -1.87084 -12.4675 -0.00796933 0.0109789 0.0151513 0 1 0
820 2 -5.31948 -9.31128 -14.2797 -0.00479905 -0.0051617 -0.00419742 -1 0 0
41 1 -5.28582 -4.4918 17.0932 0.00060837 0.00406271 -0.00294557 1 -1 -1
1253 1 -3.35361 0.150459 -16.4339 -0.00318356 -0.00424624 0.000268163 0 -1 1
369 1 -4.81707 -1.54911 -11.174 0.00546123 -0.00859916 -0.000620433 -1 -1 0
978 1 -1.33299 -8.92644 -16.0578 -0.00275965 0.0159101 -0.0151839 0 0 0
366 1 -1.33955 -2.97988 -13.082 -0.00258602 -0.00231899 0.0022586 0 0 0
414 1 -3.90605 -8.80697 -13.4391 -0.00317929 0.0161463 0.00415913 -1 1 0
412 2 -3.03432 -8.77848 -13.0448 0.000546078 0.00443753 -0.00322363 -1 1 0
364 2 -1.70969 -2.93979 -13.9639 -0.00332772 -0.00360855 0.00251219 0 0 0
977 1 -1.40494 -7.6 -15.3317 -0.0145338 -0.00210564 0.0166103 0 0 0
413 1 -2.43395 -8.76744 -13.7902 -0.00530187 -0.0139362 -0.00821822 -1 1 0
49 2 10.0869 -6.56639 -12.4001 -0.000682141 -0.00613858 -0.00388733 -1 0 0
871 2 -9.09523 -7.7755 -16.5888 0.00656208 7.88947e-05 -0.00740159 0 1 0
872 1 -9.59728 -8.2789 -15.9479 -0.0105131 -0.00323985 -0.0234419 0 1 0
1067 1 -6.85577 -0.49755 -8.43079 -0.00480251 3.93301e-05 0.00898475 -1 -1 0
1058 1 -3.5554 -5.66157 -13.4505 0.0125681 -0.0123978 0.00582256 0 0 0
1254 1 -4.63733 0.555496 -15.7412 0.0178016 0.0112056 0.0300855 0 -1 1
1252 2 -3.86271 0.917404 -16.1716 0.00675845 0.00167229 0.00223626 0 -1 1
938 1 -0.525124 -5.69769 -14.2998 0.00139212 0.0059981 0.00274463 0 0 1
939 1 -1.31266 -5.60084 -13.0105 0.00600626 0.0243554 0.00419153 0 0 1
365 1 -0.993437 -3.21235 -14.5374 -0.000607662 0.00584911 0.00142626 0 0 0
245 1 -0.0555925 -1.93035 -17.3414 -0.00316055 0.0347898 0.00398526 1 0 0
244 2 -0.0132231 -1.89885 -16.3857 0.000663117 0.0018583 0.00490395 1 0 0
1059 1 -2.92446 -4.31124 -13.1851 0.0124753 -0.00895514 -0.0115562 0 0 0
1057 2 -3.08066 -5.16587 -12.7833 0.00142437 0.000480441 0.00421432 0 0 0
48 1 8.56847 -4.94185 -15.92 0.000663378 -0.00924957 -0.0269352 0 0 0
1375 2 -6.37325 -7.37965 -16.3795 -0.00654746 -0.00563267 -0.00496065 0 1 1
50 1 9.17935 -6.47369 -12.1104 0.00558595 0.00291188 0.0128363 -1 0 0
1066 2 -7.22615 -1.34256 -8.17584 0.00401937 -0.00542041 0.00373011 -1 -1 0
990 1 -1.38974 -0.491578 -10.2157 0.00112672 0.00525239 0.00905115 1 1 0
846 1 -8.03483 -4.00087 -14.7705 0.0059445 -0.000764215 0.00338686 0 0 1
392 1 -3.25038 -9.27627 -16.1855 0.00573098 0.00169015 -0.00994804 0 0 0
873 1 -9.50225 -6.90916 -16.5856 0.0169302 0.0049415 -0.00173248 0 1 0
937 2 -0.44659 -5.82063 -13.3537 0.000408609 0.00469656 0.00265632 0 0 1
1072 2 9.20676 -2.58074 -12.3344 -0.00591699 -0.00236836 0.00611983 0 0 1
1074 1 8.52931 -2.62329 -13.0093 0.00829129 0.0318858 -0.0103423 0 0 1
51 1 -9.87743 -7.47566 -12.2015 -0.000248574 -0.00330157 0.00857944 0 0 0
391 2 -3.64231 -9.98477 -16.696 0.00276921 -0.0039126 9.2996e-05 0 0 0
1377 1 -7.32951 -7.38912 -16.4209 -0.00686867 0.00237072 0.000649206 0 1 1
359 1 -9.14195 -1.58569 -13.2341 -0.00506156 0.00524111 0.00819818 0 1 0
358 2 -8.28229 -1.21709 -13.0307 -0.00299763 0.00341451 0.00276225 0 1 0
1217 1 -7.60287 9.28274 -16.7395 -0.00639528 -0.00113383 0.01902 1 0 0
393 1 -4.46259 -9.61772 -17.0257 0.00862567 -0.00220166 -0.0125432 0 0 0
1187 1 -4.45965 -4.34119 -11.7199 0.00545048 0.00608021 -0.002018 1 2 1
1137 1 -6.35741 -7.81137 -12.1899 -0.0114236 -0.00508185 -0.00489233 0 0 1
1135 2 -6.78643 -6.98596 -11.9644 0.00182616 0.000687482 -0.000829812 0 0 1
1136 1 -7.62118 -7.24768 -11.5759 0.00259868 0.0118908 0.00838558 0 0 1
988 2 -1.176 0.249836 -10.7822 -0.00137139 -0.000933153 2.12857e-05 1 1 0
734 1 3.70604 1.06932 16.5873 -0.000912516 0.000203789 -0.000472911 0 0 0
844 2 -7.64949 -3.48648 -15.4799 -0.00280304 -0.00110764 -0.00161395 0 0 1
684 1 -3.00022 -2.10455 17.5175 0.0268928 0.029123 -0.0124817 0 0 0
682 2 -2.93853 -1.76229 -16.6508 -0.0022476 0.00213391 -0.000116671 0 0 1
246 1 0.790013 -2.37057 -16.1654 0.00072734 -0.00709602 -0.0144943 1 0 0
447 1 1.50458 -4.3333 -11.6963 0.0209083 0.00282646 0.0057689 0 -1 1
446 1 0.941814 -5.49468 -12.4878 -0.0146332 0.0263836 -0.00355363 0 -1 1
46 2 9.15 -5.67796 -15.7297 0.00245697 -0.000852404 3.92004e-05 0 0 0
47 1 9.02367 -5.8486 -14.7964 0.00644535 0.0361263 0.00736232 0 0 0
638 1 1.68314 -1.93282 -11.6767 -0.00723806 0.00593774 0.0143112 0 -1 0
612 1 5.6237 9.9506 -10.9215 -0.0140977 -0.0104407 0.0052797 -1 -1 0
610 2 5.378 -9.1045 -10.9008 0.00849811 -0.00426552 -0.00143791 -1 0 0
70 2 7.20167 -2.87298 -14.0977 -0.00375616 -0.00254713 -0.00176751 0 0 0
71 1 6.93638 -3.79216 -14.0667 0.000813087 -0.00402889 -0.00656811 0 0 0
611 1 4.59817 -9.07572 -10.3465 0.00590327 0.0180394 -0.0062079 -1 0 0
72 1 6.86821 -2.55515 -14.9368 -0.0056205 0.000263296 3.71307e-05 0 0 0
1280 1 5.573 -8.03922 -14.7496 0.00437668 0.00257374 0.00408802 -1 1 0
402 1 3.57195 -2.03441 -14.4443 -0.000939104 -0.00297075 -0.00386218 1 0 0
1120 2 4.54504 -6.82202 -13.6915 -0.00021911 -0.00166655 -0.00439429 0 0 0
1121 1 3.93214 -7.51475 -13.4451 0.0114515 -0.00321964 0.0201739 0 0 0
400 2 3.6246 -1.2457 -14.9841 -0.00310206 0.00173084 0.00280509 1 0 0
401 1 3.79335 -1.57094 -15.8684 -0.0129633 0.00912233 -0.00178591 1 0 0
1301 1 3.95446 -5.33252 -17.2446 -0.00408265 -0.00743905 0.0237189 1 0 1
1122 1 4.0375 -6.24396 -14.2612 -0.0173531 -0.0164551 -0.00413761 0 0 0
1302 1 5.39838 -4.89313 -17.1266 -0.00426602 0.00582329 -0.0233732 1 0 1
1300 2 4.50126 -4.59131 -16.9841 -0.00265364 0.000294125 -0.00136383 1 0 1
1073 1 9.81946 -3.27906 -12.565 -0.0180074 -0.0116208 0.00196384 0 0 1
286 2 -7.31497 -2.44282 -10.7067 0.00221996 0.00264789 -0.00365715 1 0 0
287 1 -6.50605 -2.8405 -11.0288 -0.00428489 0.00057849 -0.0174575 1 0 0
30 1 2.01383 -7.08322 -14.8261 -0.00926015 0.0119579 0.00579622 0 0 0
28 2 2.04549 -6.48006 -15.5687 -6.23751e-05 0.00287958 -0.00118299 0 0 0
29 1 1.84329 -7.02495 -16.3293 0.0111084 -0.00677634 0.00276515 0 0 0
887 1 7.2365 -5.765 -12.7385 0.0160923 -0.00661528 0.00350992 -1 0 1
1281 1 6.14069 -7.8748 -16.1434 -0.0253796 -0.00694159 -0.0091834 -1 1 0
1279 2 6.22213 -8.40491 -15.3506 -0.00396293 0.00261586 -0.0049373 -1 1 0
416 1 2.96758 0.521642 -14.7213 -0.0281373 -0.0111777 0.034245 -1 0 1
637 2 2.52616 -1.61269 -11.3557 -0.00227835 -0.0015607 0.00876702 0 -1 0
107 1 2.46611 -9.25036 -13.3904 -0.00919145 -0.0132403 -6.23904e-05 -1 0 0
288 1 -7.14403 -2.26674 -9.78151 0.0121432 -0.0140839 -0.0022786 1 0 0
372 1 3.80221 -2.90933 -12.3788 -0.0095906 0.0214001 -0.0145555 -1 1 0
370 2 3.90468 -3.43492 -13.1722 0.0045883 0.00436671 -0.00142812 -1 1 0
886 2 7.12357 -5.62796 -13.6791 -0.00181913 0.00326628 0.00710567 -1 0 1
888 1 6.36806 -6.1679 -13.9112 -0.00261447 0.00109712 0.0147309 -1 0 1
927 1 1.9673 -8.25498 16.6798 -0.01062 -0.00322296 -0.0167236 -1 1 0
106 2 1.90841 -8.52271 -13.6656 0.00984125 1.3817e-05 -0.0035681 -1 0 0
108 1 1.35766 -8.34116 -12.904 0.00685174 0.0107184 -0.00827927 -1 0 0
925 2 1.11894 -8.0686 17.082 -0.00226445 -0.00421468 0.00140657 -1 1 0
415 2 2.55178 1.38332 -14.6921 -0.00134623 0.0031762 -0.00687918 -1 0 1
790 2 2.04901 -3.6833 -15.5534 -0.000327343 -0.00369126 -0.0014332 0 -1 1
792 1 1.67061 -4.5274 -15.3074 0.00594741 -0.00818919 -0.00723288 0 -1 1
791 1 2.95808 -3.88366 -15.7764 -0.00373957 0.00172671 -0.0201804 0 -1 1
913 2 8.95148 -9.1939 -15.3227 -0.000712531 -0.00204962 -0.00447104 -1 0 1
915 1 8.06506 -8.83338 -15.2999 0.00111683 0.00246973 -0.00476469 -1 0 1
914 1 9.10005 -9.52181 -14.4358 -0.0172118 -0.0379072 -0.0150107 -1 0 1
98 1 0.0656609 -7.26489 -12.3973 -0.00822597 0.0056352 -0.00293175 0 -1 0
445 2 1.7574 -5.15278 -12.1215 -0.00436309 -0.00205941 0.000131316 0 -1 1
97 2 0.0517736 -7.81528 -11.6142 0.00216024 0.00680915 -0.00192574 0 -1 0
1350 1 6.60531 -1.68763 -9.8993 -0.0271814 0.00204162 -0.00962799 0 1 1
1346 1 -0.0725231 9.37232 -16.1938 -0.02095 -0.0124985 -0.00175005 0 0 1
722 1 6.04948 0.753622 -14.4246 -0.0145367 0.0139621 -0.00359463 0 0 0
723 1 4.96889 -0.155164 -13.8784 -0.00713985 0.00989181 0.00426605 0 0 0
721 2 5.71276 0.383451 -13.6086 -0.000894072 0.00453265 -0.00225268 0 0 0
371 1 3.41763 -4.239 -12.992 -0.00342229 0.0106425 0.00491834 -1 1 0
36 1 8.15618 -1.31906 -11.8137 0.00603212 0.00116287 0.0161567 0 0 0
562 2 7.33185 -7.00706 -11.2571 -0.00054197 -0.00251274 -0.000326239 -1 1 0
564 1 6.52047 -7.50913 -11.3334 -0.0103745 0.0111233 0.0143341 -1 1 0
987 1 3.65781 -9.25881 -7.97605 0.00212823 -0.00187389 0.00701584 -1 0 0
142 2 6.27739 8.42167 -11.3403 -0.00144593 -0.00346089 -0.0024186 -1 0 0
1412 1 7.02783 -6.74984 16.7331 0.00759483 0.0185454 -0.00112825 0 1 0
1411 2 6.70049 -6.76518 -17.4276 0.00526803 -0.00109686 -0.00230193 0 1 1
920 1 3.30445 -1.59372 16.4672 -0.00866661 0.0154614 0.0117465 -1 1 0
203 1 5.45206 -0.926952 17.2345 -0.0061191 0.00613106 0.0064512 -1 -1 -1
1170 1 -6.44111 0.0585837 -13.8604 -0.0206755 -0.00870965 -0.00414115 0 1 1
1168 2 -6.32097 0.438841 -14.7305 0.00147657 -0.00469236 0.000673967 0 1 1
1169 1 -6.42559 1.38093 -14.5973 -0.00859016 -0.00587383 0.00122998 0 1 1
367 2 -4.60305 -0.873443 -10.5306 0.00379699 -0.00531459 -0.00351542 -1 -1 0
368 1 -3.73119 -0.569401 -10.7829 -7.54084e-05 0.000996885 -0.00928692 -1 -1 0
276 1 -2.60443 2.13852 -15.9227 -0.00353169 0.00404743 0.00129293 1 0 0
912 1 -2.68151 8.92905 17.1056 0.00864539 0.0133249 0.0015942 0 0 0
821 1 -5.69199 9.83148 -14.0031 0.00776678 -0.0104958 -0.00342008 -1 -1 0
274 2 -1.7515 2.47215 -16.201 -0.00314619 -0.00450634 -0.00789349 1 0 0
275 1 -1.11709 1.92259 -15.7408 -0.00377235 0.00491265 0.00427372 1 0 0
225 1 -1.49208 2.67877 -13.3633 0.00894906 0.00567248 -0.00361318 0 -1 0
1101 1 -3.15637 3.22479 -10.474 -0.00216237 -0.0242628 0.0280875 0 0 0
382 2 8.75545 -9.93088 -12.5349 -0.00959395 0.000352894 0.00349384 -1 1 0
383 1 9.05661 -9.21676 -11.9731 -0.0235289 0.0076392 0.00170256 -1 1 0
1100 1 -4.50811 2.97489 -11.1083 0.00678419 0.00818142 -0.00382472 0 0 0
1099 2 -4.0906 3.17731 -10.271 -0.0085256 0.00256625 0.00518261 0 0 0
1218 1 -7.1132 8.21055 -15.7895 0.0289585 -0.0106218 -0.00993814 1 0 0
1216 2 -7.33691 8.36379 -16.7075 0.00533869 0.00153663 -0.00215096 1 0 0
1205 1 9.11008 4.62279 -14.4974 0.0020451 0.00787501 -0.00642796 -1 -1 1
1204 2 9.42625 5.37894 -14.0029 0.00277998 -2.30594e-05 0.00518447 -1 -1 1
1206 1 10.0172 5.82996 -14.6059 0.00911953 0.00445623 0.0147599 -1 -1 1
1158 1 -3.65051 8.13884 -16.1955 -0.000422738 -1.36844e-05 -0.0126784 -1 -1 1
1156 2 -3.69585 7.20213 -16.0038 -0.00317647 0.00315654 0.00216567 -1 -1 1
1157 1 -3.58479 7.14572 -15.0548 0.00256857 0.0174486 0.00234659 -1 -1 1
812 1 -3.03466 7.96134 -13.232 -0.00187738 -0.00235611 0.0218253 0 0 0
811 2 -3.75016 7.32549 -13.2306 0.00106176 -0.005693 0.00123666 0 0 0
813 1 -4.07367 7.33027 -12.3297 -0.0162318 -0.0169204 -0.0049124 0 0 0
1094 1 -0.509002 8.8425 -13.6234 0.00448307 -0.00443138 -0.000563393 -1 1 0
1095 1 -1.529 9.6324 -12.8312 -0.00568688 0.00335865 -0.0214423 -1 1 0
1093 2 -1.33451 8.75023 -13.1477 0.0030128 -0.00151031 -0.00255617 -1 1 0
159 1 -7.19955 2.92708 -16.5013 -0.0141055 -0.00171169 -0.00130306 0 0 0
157 2 -6.98889 3.43298 -17.2861 -0.00212688 -0.00206908 0.0016721 0 0 0
32 1 -5.05518 3.51894 -15.1875 0.00458659 -0.000289398 0.011687 1 0 0
411 1 -1.56201 5.8017 -13.3041 0.00768986 0.00532604 -0.0111648 -2 -1 0
31 2 -5.73232 3.1645 -14.6113 -0.00128663 -0.00279768 0.00322658 1 0 0
33 1 -5.2885 3.02985 -13.774 -0.00134715 -0.0382252 -0.00247268 1 0 0
519 1 -2.85975 4.10853 -16.006 0.00062546 0.00992867 -0.00627273 1 0 0
517 2 -3.75735 4.41557 -15.8784 -0.00133173 0.00526757 -0.0088203 1 0 0
518 1 -3.70714 5.36305 -16.0049 -0.0042475 0.00662894 0.000197492 1 0 0
223 2 -1.30137 2.543 -12.4352 -0.00201747 -0.0016067 -0.00242921 0 -1 0
224 1 -1.18906 1.59631 -12.3492 -0.0346736 -0.00548322 -0.00251339 0 -1 0
409 2 -0.713181 5.40074 -13.1172 0.00131085 -0.00577174 -0.00602995 -2 -1 0
410 1 -0.705271 5.2877 -12.1667 -0.00858958 -0.0118469 -0.00666525 -2 -1 0
1318 2 -6.46328 8.27486 -14.1448 0.0101152 -0.00105094 -0.00235637 0 -1 0
1320 1 -5.61105 7.86929 -13.9852 0.00187491 -0.0130806 0.0110223 0 -1 0
1319 1 -6.95562 8.12417 -13.3378 0.000538567 0.0190745 -0.00443492 0 -1 0
728 1 9.95083 7.06793 17.4394 -0.00447185 -0.0135753 -0.0123495 -1 1 0
177 1 -4.45269 6.45531 17.3748 0.00318673 -0.00870037 0.00394588 0 0 -1
1359 1 -0.932666 6.77399 17.0752 0.00250528 -0.00503288 0.00213804 1 1 0
158 1 -6.03673 3.37168 -17.3627 0.000241067 0.00785046 0.0229343 0 0 0
1357 2 -1.27304 6.11053 -17.3847 -0.00376263 0.000876687 0.00511579 1 1 1
1384 2 -5.89354 1.80663 -12.0817 -0.00134513 -0.00303223 -6.76353e-05 0 -1 1
1386 1 -6.52314 2.50552 -11.9045 0.0124244 0.00580049 0.0141753 0 -1 1
1385 1 -5.86528 1.29794 -11.2713 0.0233149 0.0072045 0.005525 0 -1 1
350 1 -7.03791 7.62756 15.3709 -0.0265956 -0.0158978 -0.00666735 0 0 -1
727 2 9.63207 6.49819 -16.9206 -0.00596099 0.00533795 0.00238747 -1 1 1
1010 1 -1.00035 3.03538 17.4578 -0.0104822 -0.00399423 -0.0116113 0 0 0
841 2 -0.110735 0.380536 -15.1533 -0.000970569 -0.00176558 -0.00136818 0 0 1
1183 2 -8.23873 4.16744 -14.1785 0.00144094 0.00260872 -0.00425414 1 1 0
1324 2 -8.89823 1.25643 -11.9115 0.00394418 -0.000319187 -0.00203033 1 1 1
1326 1 -9.6618 1.18601 -12.4844 0.00223301 0.00117998 6.76442e-05 1 1 1
1184 1 -7.30474 3.99026 -14.2903 -3.97951e-05 0.00077995 -0.0137351 1 1 0
300 1 -0.686926 3.14361 -10.8494 -0.0181015 0.0194714 0.0170678 0 1 0
1142 1 -4.11111 1.99769 17.3252 -0.0148975 -0.0172958 0.002946 -1 0 0
351 1 -6.92397 7.56273 16.8791 0.0198827 0.0100981 -0.00902104 0 0 -1
349 2 -6.95495 7.01047 16.0979 0.000853188 -0.00312514 0.00102828 0 0 -1
1011 1 -0.600217 4.43005 17.0257 -0.00278614 0.0011031 0.01197 0 0 0
639 1 2.53214 -0.682895 -11.583 0.0156936 -0.00742579 -0.0148405 0 -1 0
924 1 9.42662 1.99651 -14.7441 7.9142e-05 -0.0145989 -0.00675068 -1 0 0
922 2 9.36002 1.83703 -13.8026 0.00563496 0.00444462 -0.00312453 -1 0 0
1312 2 9.35996 -1.84253 -17.178 -8.39659e-05 -0.00074005 0.00988276 0 -1 0
417 1 2.31674 1.56733 -15.6016 0.00144416 -0.034438 -0.01526 -1 0 1
384 1 7.84167 9.91497 -12.2834 -0.00781715 -0.0148662 0.00177572 -1 0 0
940 2 1.25091 8.47811 -14.4918 0.000199198 0.00191821 -0.000973889 -1 -1 0
941 1 1.8511 7.92749 -14.9947 0.0191585 -0.000134042 0.0239294 -1 -1 0
1358 1 -2.08534 6.48718 -17.0463 0.000975299 0.0110538 0.00517917 1 1 1
854 1 9.15429 3.98241 -11.5676 0.00316257 0.000869003 -0.0156813 -1 0 0
729 1 8.73029 6.7825 -16.7717 -0.00185241 0.0184572 0.00219445 -1 1 1
1347 1 -0.0329559 9.29133 17.355 0.0073158 0.00158577 -0.00177982 0 0 0
942 1 1.79172 9.20691 -14.1875 -0.0170085 0.0162472 -0.00464863 -1 -1 0
1314 1 9.8731 -1.06006 -16.9763 0.00636826 -0.0030136 0.00228556 0 -1 0
843 1 0.829677 0.556539 -15.1236 -0.00330402 0.00663722 0.0222761 0 0 1
855 1 9.91554 5.01809 -12.3674 0.0182322 0.00627582 0.00562034 -1 0 0
853 2 9.92259 4.55216 -11.5313 0.0024104 0.000731713 0.00267496 -1 0 0
842 1 -0.177823 -0.506656 -15.5063 0.0158993 -0.00291308 -0.00170029 0 0 1
374 1 1.43806 7.08183 -12.9184 -0.0309514 0.00863874 3.71975e-05 -1 1 0
824 1 4.21214 9.28193 -12.7067 0.00643374 -0.0139888 -0.0178858 -1 -1 0
1185 1 -8.47713 3.70139 -13.3771 0.0140792 0.0232177 0.0114799 1 1 0
1166 1 2.15533 4.6568 -14.6626 -0.0038646 0.0229402 -0.00574514 0 -1 0
825 1 2.94925 8.52779 -12.3485 0.00281051 -0.00984031 -0.0219491 -1 -1 0
552 1 6.33668 2.38435 -16.2689 -0.00652109 -0.0187716 -0.0222536 -1 0 1
550 2 6.57444 1.61593 -15.75 0.000695336 -0.000642524 0.00128282 -1 0 1
551 1 6.896 0.982957 -16.392 -0.00748678 -0.0228094 0.0190365 -1 0 1
1250 1 6.51514 5.57959 -12.8761 0.00393588 0.00452192 0.0161545 -1 -1 0
27 1 5.22746 4.02456 -14.8178 0.00555259 -0.015529 -0.0236754 0 0 0
1249 2 7.08647 6.34749 -12.8886 0.00215843 0.00551474 -0.00498249 -1 -1 0
1251 1 7.96985 5.98806 -12.9703 0.000537334 0.00661058 -0.0270708 -1 -1 0
26 1 6.21288 2.98218 -14.3338 0.0110192 0.00741952 0.0147112 0 0 0
1325 1 -8.41593 0.441858 -12.0532 -0.0158862 -0.0162803 0.0221948 1 1 1
25 2 6.12221 3.92156 -14.4937 -0.00174977 0.00415167 0.00267385 0 0 0
585 1 3.51025 6.59389 -15.2084 0.012028 -0.00824397 -0.00294378 -1 -1 0
229 2 0.377782 4.84611 -15.6306 0.00331651 0.00246735 -0.00412616 0 -1 0
231 1 -0.0354148 5.12276 -14.8127 0.00444932 -0.000285754 -0.00262526 0 -1 0
230 1 -0.0924415 5.32702 -16.3116 0.0144285 0.0185565 -0.000432747 0 -1 0
583 2 3.64171 7.49684 -15.4976 0.000412121 -0.00380299 0.0056142 -1 -1 0
584 1 4.51966 7.50129 -15.8789 0.00147787 0.0117725 0.00823018 -1 -1 0
373 2 1.5035 7.1868 -11.9692 0.00497272 -0.00127702 -0.0013776 -1 1 0
375 1 0.70193 6.79013 -11.6281 0.00831741 0.0134197 0.0235125 -1 1 0
1238 1 3.81908 2.90461 -16.9567 -0.00389508 -0.00574584 -0.0285692 0 0 1
1239 1 4.47968 4.19338 -17.3978 0.00993538 -0.0157565 -0.0370842 0 0 1
1237 2 4.67577 3.3177 -17.0647 -0.00121788 -0.00307777 0.00283481 0 0 1
923 1 8.50546 1.42088 -13.6895 0.00741907 0.00434019 0.0100103 -1 0 0
1421 1 -9.28308 3.94793 -15.9072 0.0019692 0.00176576 -0.0182588 0 -1 1
895 2 2.34119 1.15646 -11.8784 0.00362849 0.000509837 0.000507809 0 0 0
896 1 1.94384 1.93701 -11.4923 0.000730026 0.00481549 -0.0111743 0 0 0
964 2 4.2034 6.08075 17.2051 -0.0102132 0.00207982 -0.00576347 0 0 0
1167 1 2.65992 4.80801 -13.2433 -0.0187424 0.0162 0.000270024 0 -1 0
1165 2 2.82702 5.09585 -14.1408 0.00793249 -0.00149225 -0.000447318 0 -1 0
823 2 3.26521 9.28173 -12.8465 0.00390578 0.00368476 -0.000749326 -1 -1 0
149 1 7.09853 7.10873 -14.8455 -0.0183431 0.00127859 0.0092221 0 0 0
148 2 6.81807 6.93487 -15.744 -0.000937132 0.00365168 0.00333205 0 0 0
150 1 6.46682 6.04483 -15.7178 0.00915339 -0.000661971 -0.00830046 0 0 0
897 1 2.27901 1.29783 -12.8231 0.00762528 -0.0115779 -0.00156692 0 0 0
1403 1 6.52847 -9.81108 -16.2744 -0.0133758 -0.00824923 0.00466895 0 1 0
66 1 1.49995 3.34134 -16.2114 0.00686285 -0.0107891 0.0165501 -1 0 1
64 2 1.72828 2.88124 -17.0191 0.00475996 0.00644374 0.00611395 -1 0 1
491 1 7.51154 2.3397 -10.6572 0.0145709 -0.00448956 -0.000675465 0 -1 0
490 2 7.16235 3.08779 -11.1416 -0.00547554 -0.00968414 0.00571563 0 -1 0
144 1 6.6405 7.73687 -11.9019 0.00999507 0.000285501 0.000401483 -1 0 0
1345 2 -0.334925 9.84409 -16.9842 -0.00240119 -0.00305907 -0.00228339 0 0 1
1404 1 6.62397 8.66411 -16.4098 -0.00564872 -0.00774388 0.00451761 0 0 0
293 1 8.53704 0.893409 -9.14645 9.20206e-05 -0.00496676 -0.00154477 -1 0 0
143 1 6.45053 8.11807 -10.4492 0.0149058 0.00919669 -0.00130446 -1 0 0
492 1 6.66937 2.69743 -11.8633 0.00627303 -0.0167151 0.00149534 0 -1 0
1009 2 -0.590331 3.51678 16.7392 0.00206864 0.00451222 0.00127804 0 0 0
131 1 -2.74369 -8.4422 -11.3892 0.00331042 0.0112119 -0.0087993 -1 0 0
1068 1 -7.55214 -1.20326 -7.2867 -0.00831454 -0.0109365 8.24678e-05 -1 -1 0
130 2 -2.46767 -8.03017 -10.5705 -0.00467958 -0.000300733 -0.000321764 -1 0 0
1180 2 -9.71257 -5.07926 -8.29541 -0.00054642 -0.00222039 -0.00285662 1 1 1
1182 1 -9.77655 -4.23537 -8.74261 0.00287646 0.00230194 0.00518733 1 1 1
1181 1 10.0256 -5.6932 -8.87589 -0.0159896 0.00790008 -0.00158725 0 1 1
1050 1 -0.445302 -3.44253 -10.547 0.0272459 -0.0147321 -0.00816908 1 0 1
806 1 -8.1769 -5.42823 -7.22516 0.00490303 -0.00898021 0.00330505 0 0 0
234 1 -4.6784 -6.4306 -10.6912 -0.0186088 0.00416067 0.00195208 0 0 0
233 1 -4.39409 -7.01554 -9.32416 0.00632002 -0.0116194 -0.00999459 0 0 0
232 2 -4.38309 -6.19233 -9.81247 -0.000859769 -0.00630025 -0.0011662 0 0 0
952 2 -1.46619 9.76104 -9.10964 -0.00417729 0.00460613 -0.00442039 0 -2 0
807 1 -7.09034 -4.68872 -6.47388 0.0024273 -0.00477484 0.00275502 0 0 0
805 2 -7.61681 -5.48782 -6.45123 0.00354418 -0.00546024 0.00456298 0 0 0
695 1 -1.10745 -2.47478 -8.87225 -0.00132143 0.000925907 0.0211061 0 1 0
694 2 -1.81612 -1.92217 -9.20186 0.00364906 -0.00313933 0.00370315 0 1 0
22 2 -3.96276 -3.72169 -9.00379 -0.00267108 -0.00322203 0.00716437 0 1 0
23 1 -4.60937 -3.18831 -9.46598 0.00614351 -0.00158868 -0.00329452 0 1 0
24 1 -4.12549 -4.61419 -9.30908 -0.0161942 -0.00624221 0.0232483 0 1 0
696 1 -2.57466 -2.50447 -9.24413 0.00289485 -0.00223129 0.00476691 0 1 0
636 1 9.68448 -6.34567 -5.08433 -0.00311438 0.00911076 -0.00557451 0 0 0
1039 2 -3.14843 -4.38386 -6.42103 0.000394214 -0.0046968 0.00398755 0 1 1
1040 1 -2.68292 -3.83999 -7.05644 0.00345794 0.00561272 0.0150268 0 1 1
1041 1 -3.99333 -3.94891 -6.30619 0.00480722 0.00056968 0.016647 0 1 1
255 1 -8.36248 -9.30088 -7.06299 -0.00200886 0.00708289 2.87105e-05 0 0 0
200 1 -5.8985 -3.37216 -5.09198 0.00123164 0.0138415 0.00387107 -1 0 0
199 2 -5.52456 -3.3797 -5.97308 0.00194806 -0.00427755 0.00433018 -1 0 0
251 1 -2.88445 -8.08439 -5.31562 -0.00179829 -0.0160136 -0.0114298 0 -1 0
201 1 -5.73471 -2.5169 -6.33036 0.0216442 -0.00351314 -0.00542492 -1 0 0
347 1 -2.17743 -3.95953 -4.35647 -0.0170912 0.000147129 0.0068462 0 0 0
478 2 0.164054 -0.599916 -5.90143 0.00118806 -0.00195438 -0.000372069 1 0 0
994 2 -4.02908 -6.87099 -6.51996 0.00298475 0.000211005 -0.00180897 2 1 0
995 1 -3.87416 -6.0016 -6.15063 -0.0184351 0.00890948 -0.0132969 2 1 0
996 1 -3.61423 -6.84287 -7.38213 0.00895674 -0.00346778 0.000948364 2 1 0
169 2 -0.497651 -4.05668 -8.20974 -0.00193659 0.00340892 -0.00303573 -1 -1 0
171 1 -1.19308 -4.69996 -8.34687 0.00547303 -0.00456653 -0.00308737 -1 -1 0
427 2 -6.29973 -7.28358 -4.67391 -0.00353515 0.00495619 0.00505911 1 -1 0
429 1 -5.64197 -7.44325 -5.35074 0.0118154 -0.00279552 0.021834 1 -1 0
428 1 -6.90977 -6.66363 -5.07361 0.0138456 0.0119861 -0.0105427 1 -1 0
1369 2 -1.0596 -6.871 -8.5824 -0.00298329 -0.00244808 -0.000255048 0 1 0
864 1 -2.02762 -1.6972 -4.04323 0.00600925 0.00758095 0.034428 1 1 1
346 2 -1.92374 -3.38444 -3.63457 8.94324e-05 0.000256845 0.000726904 0 0 0
1371 1 -1.53886 -6.83628 -9.41025 0.011189 -0.00249935 -0.00848373 0 1 0
1370 1 -0.362667 -7.50911 -8.73515 -0.00194021 -0.00436333 0.0125484 0 1 0
633 1 -9.41779 0.816475 -4.41275 0.0113408 -0.015907 -0.00065906 1 0 1
1127 1 -7.40155 -2.79884 -3.84087 0.00192657 0.00753539 0.0122436 0 0 0
634 2 -9.63911 -6.72099 -4.91654 -0.00939153 -0.0015818 0.0027964 1 0 0
635 1 -9.06829 -6.30809 -5.56455 0.00360671 -0.00253441 0.013656 1 0 0
1363 2 -10.0144 -2.73573 -9.65325 0.00937331 0.00105589 -0.00273454 1 -1 1
1365 1 -9.07252 -2.72176 -9.823 0.0104762 0.010083 0.00414234 1 -1 1
989 1 -0.620253 0.811912 -10.2423 -0.00738647 0.00998031 -0.00516183 1 1 0
936 1 -6.77246 -8.76951 -4.0946 0.00506387 0.00451276 0.0170383 0 0 0
670 2 1.02171 -3.2432 -5.64815 0.00391386 0.00567656 -0.00407561 0 1 0
671 1 0.859347 -2.30285 -5.7231 -0.00266662 0.00650934 0.0208019 0 1 0
1145 1 10.0072 -8.50675 -5.21091 -0.0122788 0.0097118 -0.00102567 -1 -1 1
119 1 8.8953 -4.35588 -6.166 -0.0186468 -0.0101341 -0.0231562 -1 1 0
672 1 0.625497 -3.61856 -6.43451 0.00132352 0.0230446 -0.0110577 0 1 0
575 1 -9.06453 -9.75927 -12.4354 -0.0149771 0.00992529 0.00346465 0 1 0
132 1 -2.38083 -8.7568 -9.95354 -0.0215022 -0.00769815 -0.00668283 -1 0 0
953 1 -1.22672 9.01719 -8.55685 -0.0257468 0.00253038 0.00205724 0 -2 0
253 2 -7.64512 -9.1535 -7.67935 0.00509953 -0.000976031 0.00637724 0 0 0
306 1 -6.80653 -0.334752 -4.61241 0.00580062 -0.00303935 -0.00601117 1 0 0
304 2 -7.35362 -0.812859 -5.23559 -0.00186666 -0.00160169 -0.000392196 1 0 0
254 1 -7.31943 -8.27955 -7.46402 -0.00848225 0.00874885 -0.0125592 0 0 0
479 1 0.0728298 -0.313966 -6.81036 -0.00528335 -0.0072219 -0.00138158 1 0 0
305 1 -8.1419 -1.03634 -4.74072 -2.44656e-05 0.00586342 0.00590618 1 0 0
325 2 -2.83221 0.104011 -7.6949 -0.00455537 -0.00337349 -0.00636508 0 0 0
327 1 -2.24897 -0.236304 -8.37331 0.00116807 -0.00436682 -0.000945981 0 0 0
326 1 -2.98534 -0.641265 -7.11408 -0.00948188 -0.00252948 -0.00658442 0 0 0
576 1 -8.65541 -9.56616 -10.9907 6.92438e-05 7.97306e-05 0.000531545 0 1 0
574 2 -8.73714 -9.1005 -11.8229 0.00333474 0.00256448 0.00160237 0 1 0
214 2 -2.314 8.94643 -3.5511 -0.00181245 -0.00482805 -0.00249929 -1 -1 0
266 1 -3.58543 -2.84083 -2.94206 -0.00617118 0.0169579 -0.0210128 0 0 0
265 2 -4.19563 -2.36864 -2.37555 0.00261806 0.000553637 0.00216628 0 0 0
267 1 -5.04227 -2.44925 -2.8148 0.000178328 0.0336083 0.000730745 0 0 0
35 1 6.81547 -0.786322 -12.2726 0.00106659 -0.0242179 0.00118879 0 0 0
170 1 0.299434 -4.49905 -8.50161 0.00613286 0.00529606 0.0162807 -1 -1 0
1364 1 9.77268 -2.70626 -10.522 0.0154503 -0.00576813 -0.00578236 0 -1 1
954 1 -0.675478 -9.68056 -9.14323 -0.00144723 0.00236773 0.0246089 0 -1 0
1048 2 -0.301458 -3.12256 -11.4376 0.000320406 0.0054219 -0.00528184 1 0 1
563 1 7.83819 -7.46935 -10.5891 -0.00674296 0.0032193 0.00834086 -1 1 0
99 1 -0.85648 -7.7824 -11.3139 -0.00448864 -0.032042 -0.0178291 0 -1 0
985 2 3.71858 -9.87038 -8.70989 -0.00480496 0.000716233 0.00428197 -1 0 0
986 1 3.84882 9.25466 -8.29962 0.00258714 -0.000246764 -7.8417e-05 -1 -1 0
34 2 7.42931 -0.760293 -11.5386 0.00238926 0.00481345 -0.000920608 0 0 0
1349 1 6.55632 -3.19282 -10.0539 0.0243908 -0.000872561 0.00201465 0 1 1
1348 2 6.5163 -2.49764 -9.39712 0.00317469 0.00272818 -0.00308518 0 1 1
1190 1 1.18176 -8.49826 -9.7929 0.00697786 0.0145515 0.00231938 1 1 1
1293 1 8.32599 -1.28975 -6.69426 -0.0033919 -0.000948005 -0.000680488 0 0 1
444 1 9.73771 -2.70706 -3.32973 0.00431942 0.017096 0.0102255 -1 -1 0
1291 2 8.44719 -1.73476 -5.85551 0.00610515 0.00189536 -0.000554739 0 0 1
443 1 -9.59479 -3.79585 -3.94173 -0.00628889 -0.00547443 0.0355572 0 -1 0
442 2 -9.58521 -2.86806 -3.70648 -0.00267952 0.0035109 -8.54436e-06 0 -1 0
1189 2 0.863951 -8.86481 -8.96775 0.00320011 0.00110026 -0.00510263 1 1 1
1191 1 1.45858 -8.51425 -8.30461 0.00934916 -0.0218214 0.00148613 1 1 1
750 1 5.94939 -5.79226 -10.1677 -0.00785129 0.016349 -0.015885 0 1 0
1144 2 9.51561 -9.18738 -5.67062 -0.00250168 -0.00144704 0.00506452 -1 -1 1
1292 1 9.16696 -1.26369 -5.43569 -0.0202414 0.0327808 0.00985208 0 0 1
239 1 8.73242 -8.2914 -8.86011 -0.0123523 -0.00427563 -0.00869507 -1 0 0
238 2 9.19557 -8.24607 -9.69658 -0.00058075 0.00334151 -0.00177901 -1 0 0
240 1 9.23676 -9.15378 -9.99758 0.00478856 0.00591196 -0.00879341 -1 0 0
1030 2 2.53681 -8.00657 -6.82519 -0.00363212 0.00366032 0.00198512 0 0 0
1032 1 2.17325 -8.70054 -6.27523 0.00799591 -0.00817599 -0.00523814 0 0 0
120 1 8.07373 -4.57621 -4.91366 -0.0132107 0.0136995 -0.0154157 -1 1 0
118 2 8.53787 -5.04564 -5.6068 -0.00414493 0.000715812 -0.000547457 -1 1 0
196 2 2.20806 -4.78466 -8.33834 0.0039662 0.00618373 -0.00205638 0 0 0
197 1 2.89634 -4.88386 -8.99611 -0.00190187 -0.00723889 -0.00617543 0 0 0
198 1 2.63104 -5.01643 -7.51154 0.00784097 0.0104041 -0.00285312 0 0 0
904 2 -0.650327 -7.38469 -6.05554 -0.00343048 0.00237303 -0.00222754 0 -1 0
905 1 0.134752 -6.86423 -5.88525 -0.00161334 -0.00124718 0.000454441 0 -1 0
1111 2 5.13909 -2.842 -6.91514 -0.000668015 -0.00283592 -0.00167233 -1 0 0
906 1 -0.993585 -7.03873 -6.87939 0.00416344 9.99478e-05 -0.00633607 0 -1 0
1098 1 4.90716 -3.85462 -5.67917 0.0155808 0.00182668 0.00391287 0 0 0
749 1 5.98896 -5.69298 -8.6576 0.00322244 -0.0263185 -0.0133497 0 1 0
748 2 5.59558 -5.29175 -9.43251 0.00599661 0.00256293 0.000175991 0 1 0
1097 1 5.08233 -3.98078 -4.18074 0.0111044 -0.0104359 0.00340161 0 0 0
1031 1 2.85919 -7.35279 -6.20481 -0.00367517 -0.00298066 0.00902422 0 0 0
530 1 1.69748 -5.00762 -5.29081 0.0120096 0.0179652 -0.00993096 0 0 0
531 1 3.2073 -5.11836 -5.28331 0.0106222 -0.0012687 -0.0177407 0 0 0
1096 2 4.81133 -4.47355 -4.95531 -0.00244707 0.00102655 0.000844612 0 0 0
352 2 0.990155 -9.80477 -5.18968 0.00218762 -0.00538117 -0.00456866 0 1 0
353 1 0.280873 -9.42486 -5.70816 -0.0106074 -0.00538629 0.0129816 0 1 0
529 2 2.41053 -5.64001 -5.37953 0.00312506 0.00553752 0.00733207 0 0 0
1084 2 6.27569 -6.00342 -6.92738 -0.00216396 -0.00116009 -0.00420366 -2 1 0
1085 1 5.43029 -5.56361 -6.83743 0.00300623 0.0040477 0.0185712 -2 1 0
1086 1 6.86135 -5.51896 -6.34555 0.00848081 -0.0253817 0.00519514 -2 1 0
1049 1 -0.415192 -2.17432 -11.3732 -0.00990568 0.00265153 0.0172078 1 0 1
836 1 2.51876 -1.2419 -9.01655 0.0105987 0.000305696 -0.00831578 -1 0 0
354 1 0.823352 9.23287 -5.20896 0.000687927 -0.00522855 0.00110088 0 0 0
827 1 2.99271 9.90969 -4.32021 -0.00338131 -0.00228834 -0.00731955 0 0 0