ITEM: TIMESTEP
0
ITEM: NUMBER OF ATOMS
1422
ITEM: BOX BOUNDS pp pp pp
-1.0093999999999999e+01 1.0093999999999999e+01
-9.9900000000000002e+00 9.9900000000000002e+00
-1.8785000000000000e+01 1.8785000000000000e+01
ITEM: ATOMS id type xs ys zs
16 2 0.0618949 0.349433 0.147202
17 1 0.0589727 0.390688 0.16055
18 1 0.0185168 0.329476 0.152279
36 1 0.280229 0.190932 0.198336
89 1 0.493472 0.496613 0.107818
104 1 0.274351 0.480948 0.163714
105 1 0.313353 0.468145 0.197966
133 2 0.246273 0.457989 0.118993
134 1 0.215308 0.489166 0.107453
135 1 0.224267 0.41564 0.11552
182 1 0.477247 0.164192 0.0536752
183 1 0.485028 0.124107 0.0205133
187 2 0.297711 0.332941 0.180552
188 1 0.249781 0.324923 0.178318
189 1 0.310033 0.322854 0.155802
202 2 0.343791 0.183306 0.00305564
203 1 0.329458 0.181277 0.0280714
207 1 0.0544229 0.209801 0.18438
208 2 0.0575603 0.216644 0.077408
209 1 0.0760555 0.243155 0.0577105
210 1 0.0330594 0.251351 0.0896234
217 2 0.175357 0.284766 0.16689
218 1 0.135809 0.300979 0.154399
219 1 0.186579 0.243924 0.154143
220 2 0.315989 0.294198 0.111788
221 1 0.364101 0.289677 0.113962
222 1 0.310925 0.313881 0.0879027
226 2 0.303482 0.343789 0.0452497
227 1 0.282271 0.326897 0.0236146
228 1 0.340606 0.368483 0.0347732
238 2 0.250301 0.155572 0.157958
239 1 0.212999 0.125549 0.163057
240 1 0.287022 0.12375 0.157601
289 2 0.0920627 0.446257 0.0423007
290 1 0.120271 0.47696 0.0560509
291 1 0.0495017 0.453128 0.0537218
337 2 0.444113 0.268897 0.133707
338 1 0.48338 0.297161 0.136962
339 1 0.437831 0.25357 0.158367
343 2 0.485327 0.111273 0.155171
344 1 0.482414 0.148078 0.172084
349 2 0.299895 0.172921 0.0713093
350 1 0.289264 0.206236 0.0893889
351 1 0.343168 0.157858 0.0799409
361 2 0.0874149 0.310242 0.0282078
362 1 0.0958228 0.356341 0.035706
363 1 0.0714075 0.316268 0.00434325
407 1 0.306784 0.478938 0.0810365
408 1 0.353398 0.467223 0.0495589
412 2 0.403624 0.418828 0.0191251
414 1 0.451635 0.415546 0.0218752
535 2 0.060361 0.156091 0.14429
536 1 0.0139938 0.144616 0.138878
537 1 0.0726807 0.173709 0.120839
592 2 0.147129 0.0785907 0.179767
593 1 0.112235 0.101243 0.166229
594 1 0.134654 0.0312635 0.176889
595 2 0.0875156 0.0792552 0.0614648
596 1 0.126461 0.0986841 0.0497751
597 1 0.0634346 0.119909 0.0670768
598 2 0.359334 0.0765458 0.176478
599 1 0.402235 0.0847729 0.165152
610 2 0.194232 0.137138 0.0292712
611 1 0.217007 0.106469 0.0131321
612 1 0.229008 0.146753 0.0469702
613 2 0.428459 0.1581 0.0928525
614 1 0.445343 0.127088 0.110729
615 1 0.435148 0.200518 0.105604
1162 2 0.415805 0.0658472 0.00177269
3 1 0.565203 0.491839 0.158634
37 2 0.673241 0.227877 0.168041
38 1 0.698548 0.218636 0.190075
39 1 0.707883 0.248805 0.153742
88 2 0.527569 0.464023 0.114566
90 1 0.558352 0.467743 0.0947632
91 2 0.5395 0.397809 0.0246222
92 1 0.574972 0.413231 0.0404563
93 1 0.536768 0.351093 0.0309125
97 2 0.705137 0.476685 0.130135
98 1 0.67045 0.488599 0.147501
99 1 0.735354 0.451696 0.145635
118 2 0.640509 0.438314 0.06967
119 1 0.66554 0.456031 0.0901277
120 1 0.667272 0.457151 0.0499777
130 2 0.81653 0.0678912 0.0620456
131 1 0.78374 0.08008 0.080239
132 1 0.849287 0.103087 0.0635719
178 2 0.709108 0.490439 0.0153584
181 2 0.504748 0.162719 0.0321911
190 2 0.556023 0.342434 0.144698
191 1 0.54416 0.387021 0.135587
192 1 0.589667 0.328363 0.127571
197 1 0.575886 0.331189 0.192444
250 2 0.633896 0.190625 0.0518645
251 1 0.589801 0.185033 0.0412485
252 1 0.634549 0.237295 0.0593016
256 2 0.650899 0.307791 0.0923827
257 1 0.695303 0.301502 0.102161
258 1 0.653524 0.353526 0.0830931
274 2 0.875815 0.328432 0.0807691
275 1 0.855444 0.318838 0.0574363
276 1 0.899698 0.369488 0.0744131
331 2 0.598118 0.153732 0.121586
332 1 0.608169 0.168881 0.0973532
333 1 0.620965 0.187456 0.136007
345 1 0.528015 0.120883 0.143455
475 2 0.899894 0.460067 0.163945
476 1 0.854947 0.445164 0.170456
477 1 0.918714 0.471633 0.186727
484 2 0.926784 0.450415 0.0585288
485 1 0.900224 0.46006 0.037835
486 1 0.913306 0.486328 0.0747883
487 2 0.818286 0.308884 0.0158578
489 1 0.809856 0.261911 0.0101573
490 2 0.781176 0.401171 0.175399
491 1 0.778545 0.355702 0.166266
492 1 0.756687 0.397773 0.198022
502 2 0.78809 0.174895 0.00304394
503 1 0.81545 0.151805 0.0203188
504 1 0.744018 0.166124 0.0120184
505 2 0.775752 0.282174 0.127351
506 1 0.79466 0.237702 0.132407
507 1 0.80998 0.300167 0.111512
520 2 0.811312 0.153362 0.144758
521 1 0.822432 0.12695 0.165987
522 1 0.774463 0.126653 0.135297
532 2 0.909744 0.164404 0.0478514
533 1 0.935017 0.134441 0.0318325
534 1 0.924641 0.207972 0.0395957
589 2 0.849082 0.0606334 0.198902
590 1 0.87687 0.0241614 0.189572
602 1 0.637043 0.104313 0.189537
604 2 0.715117 0.0787833 0.113749
605 1 0.670207 0.0958747 0.114126
606 1 0.707276 0.0310872 0.107508
634 2 0.925729 0.323751 0.149491
635 1 0.91731 0.371057 0.153717
636 1 0.910915 0.319075 0.124847
643 2 0.913262 0.182077 0.199429
645 1 0.89352 0.214586 0.183657
661 2 0.93742 0.14005 0.117867
662 1 0.893406 0.144497 0.127855
663 1 0.929675 0.149784 0.0927594
67 2 0.0724476 0.637334 0.100889
68 1 0.061645 0.666189 0.0810365
69 1 0.0826556 0.669852 0.119511
103 2 0.285449 0.501989 0.186577
153 1 0.4828 0.930089 0.133819
154 2 0.196399 0.825549 0.176426
156 1 0.164178 0.792325 0.168158
244 2 0.438287 0.561605 0.0939378
245 1 0.399818 0.545565 0.0804396
246 1 0.416319 0.573842 0.116552
286 2 0.322495 0.705927 0.18463
287 1 0.33516 0.747467 0.172556
288 1 0.275681 0.704705 0.179455
292 2 0.370634 0.590965 0.153528
293 1 0.359196 0.633949 0.164248
294 1 0.339788 0.561229 0.165838
298 2 0.322575 0.830862 0.14856
299 1 0.276113 0.835234 0.156046
300 1 0.342305 0.869225 0.161185
322 2 0.317701 0.69556 0.0717457
323 1 0.356548 0.671192 0.0788993
324 1 0.333099 0.742079 0.0728494
325 2 0.160019 0.54016 0.08168
326 1 0.12619 0.568899 0.0927677
327 1 0.183105 0.574766 0.0679984
334 2 0.484257 0.757016 0.0715665
335 1 0.440199 0.777704 0.0736107
346 2 0.367656 0.824067 0.0793467
347 1 0.36605 0.869352 0.0693599
348 1 0.35029 0.831155 0.103467
358 2 0.204332 0.649188 0.0420894
359 1 0.24103 0.671374 0.0547555
360 1 0.230061 0.623996 0.0244353
370 2 0.0945147 0.74568 0.149225
371 1 0.0678091 0.759696 0.169492
372 1 0.0761885 0.772321 0.129448
380 1 0.492521 0.756093 0.0119328
391 2 0.272466 0.560922 0.00198719
392 1 0.29016 0.539856 0.023566
406 2 0.329696 0.503031 0.062057
454 2 0.394045 0.951288 0.0488501
455 1 0.439034 0.934675 0.0453043
456 1 0.395171 0.992128 0.0347729
457 2 0.0800455 0.677213 0.0171352
458 1 0.123395 0.669483 0.0282595
459 1 0.0718499 0.634329 0.00554089
607 2 0.0525543 0.814644 0.0898297
608 1 0.0147209 0.815515 0.074011
609 1 0.072863 0.857656 0.0838815
628 2 0.161622 0.874364 0.0162771
629 1 0.138691 0.901246 0.0343991
630 1 0.167503 0.83247 0.0285392
694 2 0.119488 0.941435 0.181945
695 1 0.0751812 0.928094 0.175747
696 1 0.146027 0.902378 0.174779
697 2 0.0801133 0.941809 0.0632078
698 1 0.0901888 0.990108 0.0642039
699 1 0.0324905 0.943654 0.0614431
700 2 0.369414 0.937833 0.184126
701 1 0.358618 0.984502 0.178793
1 2 0.601719 0.509907 0.172471
2 1 0.594329 0.557998 0.168994
52 2 0.582966 0.635191 0.14603
53 1 0.573456 0.637025 0.120635
54 1 0.557518 0.67389 0.154626
79 2 0.655678 0.788176 0.180104
80 1 0.678603 0.744847 0.177215
81 1 0.69404 0.818283 0.178977
82 2 0.719091 0.672148 0.167963
83 1 0.686181 0.643509 0.157043
84 1 0.728058 0.648622 0.190468
124 2 0.526572 0.75638 0.164977
125 1 0.569614 0.771097 0.174137
126 1 0.503035 0.798006 0.162407
136 2 0.89107 0.735076 0.0350053
137 1 0.911795 0.779113 0.0364963
138 1 0.921603 0.711376 0.0199004
151 2 0.511978 0.899527 0.121553
152 1 0.504332 0.91083 0.0966157
157 2 0.650883 0.862225 0.0421742
158 1 0.677038 0.826992 0.030024
159 1 0.645019 0.840914 0.0655837
160 2 0.626804 0.831909 0.111021
161 1 0.586063 0.854656 0.118481
162 1 0.638482 0.807769 0.132799
180 1 0.723766 0.536375 0.0144306
262 2 0.545336 0.636436 0.0740213
263 1 0.523814 0.680735 0.0735584
264 1 0.506961 0.608132 0.0800834
280 2 0.821219 0.747817 0.0982631
281 1 0.793801 0.709659 0.104143
282 1 0.840919 0.734853 0.0754734
304 2 0.688617 0.652677 0.0468379
305 1 0.715037 0.629769 0.0652031
306 1 0.644124 0.646247 0.055905
310 2 0.94586 0.864248 0.0389146
311 1 0.951366 0.885675 0.0159077
312 1 0.905861 0.887242 0.0474999
316 2 0.758645 0.586024 0.096176
317 1 0.73763 0.549188 0.109104
318 1 0.805282 0.574246 0.0990789
336 1 0.5112 0.792822 0.0811269
385 2 0.72058 0.764578 0.00962297
386 1 0.717402 0.722624 0.0233409
397 2 0.558368 0.639371 0.00035186
398 1 0.552898 0.632862 0.0258836
472 2 0.889015 0.546598 0.107285
473 1 0.916965 0.583624 0.114191
474 1 0.893436 0.516527 0.127887
538 2 0.754968 0.87888 0.172204
539 1 0.791089 0.873812 0.154898
540 1 0.780212 0.892734 0.193177
616 2 0.517358 0.894792 0.0447738
617 1 0.565402 0.893329 0.0422484
618 1 0.505497 0.860833 0.0269503
619 2 0.857272 0.869704 0.124724
620 1 0.849797 0.822709 0.117913
621 1 0.855085 0.891234 0.101382
649 2 0.917484 0.948598 0.17569
650 1 0.901001 0.924963 0.154668
651 1 0.921405 0.910562 0.191982
670 2 0.83393 0.932605 0.0604934
671 1 0.787018 0.925911 0.0652309
672 1 0.833943 0.98223 0.0595477
704 1 0.681673 0.927637 0.188644
706 2 0.700011 0.950332 0.0930496
707 1 0.676669 0.932791 0.0726417
708 1 0.690878 0.915669 0.110586
1421 1 0.661419 0.918963 0.00527602
7 2 0.135829 0.447452 0.314597
8 1 0.147869 0.409122 0.329488
9 1 0.179129 0.459587 0.305233
19 2 0.0738187 0.454555 0.212394
20 1 0.0943404 0.412351 0.219939
21 1 0.11101 0.485111 0.214037
34 2 0.302498 0.216124 0.217328
35 1 0.303096 0.260408 0.206224
40 2 0.128925 0.336952 0.234907
41 1 0.162491 0.308751 0.246272
42 1 0.122232 0.312135 0.212835
43 2 0.357156 0.412901 0.229911
44 1 0.401458 0.396041 0.23596
45 1 0.341731 0.378459 0.213206
49 2 0.230822 0.160914 0.324831
50 1 0.217354 0.184735 0.303202
51 1 0.192516 0.169792 0.340196
61 2 0.212956 0.250125 0.269797
62 1 0.242612 0.278521 0.283921
63 1 0.24364 0.2322 0.251819
76 2 0.402619 0.0641322 0.246017
77 1 0.408325 0.0164992 0.250962
78 1 0.364924 0.0733239 0.261616
109 2 0.278084 0.456241 0.285263
110 1 0.30966 0.442519 0.266572
111 1 0.305432 0.488564 0.298593
121 2 0.221155 0.481609 0.395942
123 1 0.176225 0.465968 0.391439
169 2 0.287704 0.0542301 0.287806
170 1 0.253244 0.0621979 0.270092
171 1 0.275394 0.0888339 0.304935
172 2 0.499545 0.0862376 0.385017
174 1 0.451794 0.0806476 0.383344
184 2 0.282476 0.33127 0.315798
185 1 0.246487 0.332464 0.333366
186 1 0.280922 0.377143 0.306615
199 2 0.166993 0.332011 0.354759
200 1 0.144299 0.35659 0.373986
201 1 0.152679 0.286383 0.359317
205 2 0.035484 0.23823 0.202906
206 1 0.0512812 0.217152 0.225029
214 2 0.437142 0.215816 0.200305
215 1 0.393118 0.213664 0.2113
216 1 0.465325 0.199487 0.219678
235 2 0.474868 0.356011 0.252967
237 1 0.457592 0.327366 0.272203
241 2 0.414329 0.294199 0.30966
242 1 0.371235 0.315325 0.313701
243 1 0.439388 0.30736 0.33093
265 2 0.0961616 0.418467 0.397504
267 1 0.0501155 0.428259 0.390929
313 2 0.128113 0.189582 0.370107
314 1 0.0870796 0.206815 0.380221
315 1 0.13757 0.154445 0.387446
340 2 0.496049 0.30679 0.36793
341 1 0.499909 0.314984 0.393477
367 2 0.174219 0.0946268 0.249771
368 1 0.168238 0.0978786 0.223778
369 1 0.171306 0.0457716 0.251989
410 1 0.286427 0.424476 0.397562
411 1 0.352653 0.408445 0.380457
419 1 0.341662 0.238768 0.396023
421 2 0.350566 0.197542 0.353387
422 1 0.376282 0.223178 0.336049
423 1 0.307905 0.192616 0.341144
424 2 0.409402 0.442359 0.352065
425 1 0.453437 0.457646 0.357761
426 1 0.390424 0.481738 0.340289
436 2 0.363842 0.0674634 0.370921
437 1 0.365576 0.114501 0.363191
438 1 0.318419 0.0648933 0.378519
494 1 0.0290483 0.487309 0.252738
495 1 0.0593797 0.492869 0.288975
523 2 0.0808007 0.188288 0.265356
524 1 0.11188 0.151127 0.262174
525 1 0.108667 0.22115 0.2767
526 2 0.0409869 0.348122 0.290603
527 1 0.0706901 0.341773 0.270283
528 1 0.0635189 0.383806 0.303196
541 2 0.0684542 0.0473514 0.345439
542 1 0.0216925 0.041088 0.33895
543 1 0.0762964 0.0917884 0.336405
584 1 0.482569 0.110767 0.246287
600 1 0.371482 0.0827652 0.201503
4 2 0.540164 0.470928 0.27968
5 1 0.554118 0.447156 0.301155
6 1 0.517635 0.434834 0.266879
28 2 0.887072 0.166255 0.303127
29 1 0.895286 0.193686 0.32438
30 1 0.902218 0.19658 0.284658
31 2 0.621042 0.304929 0.285227
32 1 0.638223 0.260033 0.289879
33 1 0.609399 0.301315 0.260088
46 2 0.900037 0.245383 0.362253
47 1 0.862312 0.275541 0.358859
48 1 0.905263 0.246856 0.387801
58 2 0.739602 0.212582 0.229179
59 1 0.7453 0.170346 0.241864
60 1 0.755859 0.24395 0.247224
73 2 0.761892 0.117586 0.329092
74 1 0.723079 0.13324 0.316026
75 1 0.797394 0.131456 0.313048
94 2 0.873261 0.442422 0.328461
95 1 0.841666 0.478751 0.323753
96 1 0.897025 0.439904 0.306088
100 2 0.683638 0.383389 0.388485
102 1 0.651379 0.394847 0.369798
173 1 0.514373 0.0402569 0.381099
175 2 0.659353 0.246663 0.392371
177 1 0.66314 0.295186 0.390179
196 2 0.597464 0.310096 0.212967
198 1 0.620104 0.274038 0.20027
211 2 0.584253 0.39201 0.336453
212 1 0.600675 0.360325 0.31828
213 1 0.549323 0.364617 0.347357
223 2 0.645007 0.169124 0.294968
224 1 0.611736 0.173324 0.31393
225 1 0.618752 0.150267 0.275881
236 1 0.507268 0.326995 0.241779
285 1 0.691661 0.468983 0.257772
328 2 0.563234 0.188153 0.352568
329 1 0.601743 0.198963 0.367368
330 1 0.542393 0.151058 0.365828
342 1 0.516028 0.262361 0.364844
353 1 0.741574 0.215067 0.39784
354 1 0.804511 0.17549 0.393131
355 2 0.710666 0.387363 0.237043
356 1 0.668654 0.364691 0.232794
357 1 0.732091 0.35672 0.253936
508 2 0.786102 0.300168 0.278859
509 1 0.83459 0.299711 0.275747
510 1 0.783302 0.303816 0.304768
511 2 0.797321 0.33532 0.350219
512 1 0.758285 0.354348 0.361627
513 1 0.82281 0.375321 0.343799
556 2 0.838956 0.0771251 0.383988
557 1 0.806897 0.0878742 0.364926
558 1 0.829331 0.0297815 0.388302
583 2 0.518301 0.143583 0.243947
585 1 0.553715 0.117886 0.232661
586 2 0.75208 0.078815 0.248387
587 1 0.784573 0.0762029 0.228906
588 1 0.709626 0.0790353 0.236191
591 1 0.882019 0.0963727 0.20256
601 2 0.629725 0.0863093 0.213066
603 1 0.633325 0.0375797 0.208794
644 1 0.957579 0.201046 0.202004
646 2 0.962149 0.442263 0.383536
648 1 0.932946 0.429177 0.363914
658 2 0.920236 0.299814 0.269718
659 1 0.938586 0.30087 0.245972
660 1 0.959373 0.313825 0.283471
664 2 0.934808 0.0472916 0.330382
665 1 0.907282 0.0571083 0.35098
666 1 0.920262 0.0833945 0.314464
13 2 0.210547 0.658599 0.264701
14 1 0.199741 0.613696 0.255818
15 1 0.258879 0.655353 0.265935
25 2 0.461321 0.589364 0.280485
26 1 0.483286 0.547859 0.273352
27 1 0.496227 0.607261 0.295843
55 2 0.352841 0.550363 0.319737
56 1 0.329164 0.588631 0.330079
57 1 0.387763 0.572697 0.306002
64 2 0.283018 0.655526 0.350944
65 1 0.280271 0.703872 0.347186
66 1 0.237548 0.647167 0.358517
106 2 0.349853 0.661786 0.254743
107 1 0.34991 0.669201 0.229014
108 1 0.390796 0.636136 0.258301
117 1 0.335614 0.655487 0.389672
139 2 0.089779 0.561094 0.358475
140 1 0.0418093 0.567465 0.356796
141 1 0.0966543 0.519469 0.345673
142 2 0.0796274 0.709008 0.275969
143 1 0.120119 0.683715 0.271441
144 1 0.0889091 0.725468 0.300046
148 2 0.476733 0.726177 0.396281
155 1 0.201887 0.813704 0.201585
166 2 0.159064 0.663031 0.384757
168 1 0.132647 0.626269 0.374256
255 1 0.495419 0.630421 0.399381
259 2 0.196218 0.528584 0.239404
260 1 0.225836 0.524435 0.218745
261 1 0.219843 0.500641 0.256506
295 2 0.408632 0.793043 0.340162
296 1 0.423469 0.837773 0.346694
297 1 0.439747 0.764832 0.353231
319 2 0.114901 0.768584 0.33967
320 1 0.132237 0.731955 0.354275
321 1 0.113308 0.80429 0.356934
460 2 0.0568849 0.794424 0.218281
461 1 0.0623706 0.755133 0.233587
462 1 0.0730914 0.828557 0.234798
493 2 0.0189513 0.504612 0.276447
547 2 0.276594 0.793506 0.356396
548 1 0.26395 0.835056 0.3445
549 1 0.324566 0.794023 0.352253
559 2 0.143927 0.937507 0.362118
560 1 0.117026 0.975586 0.35376
561 1 0.132806 0.936211 0.387067
562 2 0.260319 0.922716 0.326394
563 1 0.218047 0.927426 0.339288
564 1 0.253063 0.954288 0.307125
566 1 0.46949 0.914407 0.290718
574 2 0.11852 0.85582 0.276809
575 1 0.111615 0.834061 0.299701
576 1 0.15737 0.831241 0.268047
577 2 0.223384 0.790527 0.246868
578 1 0.218364 0.743221 0.253352
579 1 0.268453 0.799515 0.255311
580 2 0.354294 0.796503 0.273127
581 1 0.355856 0.749503 0.265619
582 1 0.374932 0.792658 0.296674
667 2 0.387897 0.930005 0.26363
668 1 0.379604 0.881671 0.261988
669 1 0.348586 0.944058 0.276683
675 1 0.483815 0.929758 0.384837
676 2 0.182453 0.961825 0.247535
677 1 0.168539 0.954251 0.222875
678 1 0.157369 0.926742 0.259688
679 2 0.380147 0.930503 0.362476
680 1 0.381243 0.979483 0.363157
681 1 0.337225 0.923517 0.35087
702 1 0.37953 0.939311 0.209332
10 2 0.734512 0.615682 0.233167
11 1 0.709569 0.580448 0.245113
12 1 0.742719 0.647377 0.252485
22 2 0.587016 0.859642 0.239982
23 1 0.600051 0.814366 0.233793
24 1 0.561199 0.853436 0.261483
70 2 0.749208 0.711005 0.287072
71 1 0.7008 0.714744 0.289975
72 1 0.761282 0.757401 0.28179
85 2 0.803266 0.608068 0.382101
86 1 0.796595 0.582333 0.360117
87 1 0.808037 0.65331 0.372069
112 2 0.618885 0.721478 0.300325
113 1 0.61232 0.75757 0.317494
114 1 0.595737 0.683872 0.311567
247 2 0.785984 0.545148 0.316794
248 1 0.814976 0.570981 0.300994
249 1 0.747516 0.53624 0.30156
253 2 0.509024 0.584638 0.394764
271 2 0.615003 0.719416 0.392675
272 1 0.567591 0.721102 0.387641
279 1 0.939524 0.6114 0.399197
283 2 0.6781 0.508802 0.271165
284 1 0.630038 0.503246 0.270617
301 2 0.563831 0.607014 0.329355
302 1 0.54424 0.596503 0.352651
303 1 0.597172 0.572472 0.327551
307 2 0.714371 0.817725 0.389975
308 1 0.675292 0.79013 0.384546
309 1 0.710737 0.852421 0.371756
364 2 0.794385 0.841899 0.287295
365 1 0.791709 0.871939 0.266561
366 1 0.842479 0.840504 0.290788
401 1 0.716917 0.602177 0.395827
402 1 0.649671 0.635561 0.395701
463 2 0.927967 0.849918 0.303138
464 1 0.924832 0.846906 0.329097
465 1 0.949067 0.892922 0.299869
466 2 0.898165 0.829527 0.374363
467 1 0.871062 0.791816 0.366232
468 1 0.919064 0.808746 0.395325
478 2 0.90563 0.595004 0.289252
479 1 0.943613 0.573116 0.278242
480 1 0.910285 0.641112 0.280446
481 2 0.806589 0.733111 0.353485
482 1 0.770654 0.759829 0.363375
483 1 0.791277 0.725007 0.329026
565 2 0.505081 0.898074 0.305873
567 1 0.503587 0.929364 0.325854
568 2 0.613307 0.840733 0.336993
569 1 0.57253 0.858616 0.326554
570 1 0.643646 0.877696 0.333383
571 2 0.733127 0.918954 0.337965
572 1 0.731824 0.962103 0.326218
573 1 0.754591 0.890995 0.319628
637 2 0.953642 0.574106 0.357165
638 1 0.931964 0.581822 0.334145
639 1 0.947488 0.52611 0.360693
640 2 0.942125 0.724721 0.270909
641 1 0.989655 0.716512 0.272744
642 1 0.938045 0.768125 0.28287
652 2 0.922976 0.832429 0.213873
653 1 0.901444 0.794626 0.225123
654 1 0.969548 0.819023 0.215359
673 2 0.522171 0.951648 0.374491
674 1 0.557687 0.93633 0.39036
688 2 0.824452 0.939352 0.393143
689 1 0.789862 0.930167 0.375573
690 1 0.855918 0.90365 0.386806
691 2 0.784931 0.937898 0.236962
692 1 0.810586 0.979051 0.236033
693 1 0.740427 0.955154 0.232806
703 2 0.657412 0.9558 0.205417
705 1 0.629243 0.922583 0.217534
194 1 0.489509 0.310284 0.449867
266 1 0.0943397 0.42448 0.423325
268 2 0.4133 0.447212 0.44912
269 1 0.379656 0.428084 0.433355
270 1 0.451431 0.418878 0.44322
403 2 0.112075 0.439486 0.470189
404 1 0.157326 0.423676 0.470038
405 1 0.103726 0.442568 0.495941
409 2 0.32402 0.393349 0.40016
418 2 0.33764 0.263209 0.418503
420 1 0.333458 0.309604 0.409771
433 2 0.267641 0.293736 0.480117
434 1 0.225047 0.271267 0.475788
435 1 0.288627 0.289586 0.456762
439 2 0.449016 0.235325 0.459674
440 1 0.428184 0.217966 0.481168
441 1 0.409937 0.240241 0.444388
448 2 0.163838 0.210731 0.471651
449 1 0.166611 0.169429 0.45795
450 1 0.165938 0.19246 0.495945
451 2 0.413205 0.064906 0.499073
452 1 0.413822 0.0428526 0.476014
453 1 0.38951 0.10684 0.494757
514 2 0.0526236 0.21369 0.431428
515 1 0.0908979 0.227418 0.4457
516 1 0.0541042 0.165698 0.435116
622 2 0.141698 0.0954835 0.42966
623 1 0.116637 0.0546456 0.426929
624 1 0.180399 0.0792356 0.443041
625 2 0.248837 0.06477 0.472257
626 1 0.295313 0.0740643 0.474743
627 1 0.249376 0.0159447 0.467721
895 2 0.49254 0.162723 0.53371
896 1 0.465986 0.161535 0.555552
897 1 0.473936 0.124397 0.521203
916 2 0.343792 0.184337 0.502185
917 1 0.330287 0.182516 0.527294
918 1 0.317061 0.222473 0.494396
922 2 0.0600533 0.217374 0.57938
923 1 0.0781583 0.244075 0.559698
924 1 0.0315656 0.25049 0.590225
936 1 0.311135 0.314227 0.588595
940 2 0.302586 0.343213 0.545879
941 1 0.281667 0.327235 0.523974
942 1 0.340931 0.366671 0.535849
1003 2 0.0892445 0.447929 0.541807
1004 1 0.11688 0.477487 0.556546
1005 1 0.0458203 0.454852 0.552367
1066 2 0.299311 0.17448 0.571231
1067 1 0.288792 0.208537 0.588927
1068 1 0.341307 0.157978 0.580864
1078 2 0.0891911 0.311052 0.529613
1079 1 0.0956385 0.357532 0.536997
1080 1 0.0723975 0.316184 0.505863
1121 1 0.305864 0.478286 0.580875
1122 1 0.353389 0.465557 0.550009
1126 2 0.404268 0.416801 0.520645
1127 1 0.404436 0.430036 0.495477
1128 1 0.452014 0.411132 0.524585
1303 2 0.0879381 0.0785863 0.560695
1304 1 0.126875 0.0991442 0.549606
1305 1 0.0630201 0.118584 0.566597
1318 2 0.195134 0.135178 0.529382
1319 1 0.218651 0.105348 0.513161
1320 1 0.229738 0.146143 0.547001
1321 2 0.424415 0.154848 0.596421
101 1 0.677773 0.421224 0.404773
163 2 0.76848 0.328845 0.444467
164 1 0.741283 0.346854 0.425361
165 1 0.778694 0.283987 0.434952
176 1 0.633914 0.241456 0.414525
193 2 0.510384 0.350509 0.439785
195 1 0.551747 0.351471 0.453192
352 2 0.785991 0.210271 0.408065
416 1 0.600161 0.492379 0.465387
417 1 0.546411 0.477521 0.492346
427 2 0.625247 0.338384 0.482608
428 1 0.623415 0.291611 0.474894
429 1 0.672507 0.347212 0.482925
430 2 0.686632 0.482775 0.441579
432 1 0.735134 0.487689 0.440712
442 2 0.587914 0.219854 0.451505
443 1 0.540323 0.212314 0.454831
444 1 0.607387 0.18113 0.463702
445 2 0.658816 0.129139 0.492298
446 1 0.653608 0.0810951 0.494843
447 1 0.646006 0.146005 0.515876
497 1 0.854918 0.466763 0.433785
499 2 0.892238 0.384163 0.437235
500 1 0.84684 0.367806 0.440168
501 1 0.915385 0.342547 0.444092
517 2 0.964779 0.0863522 0.499841
518 1 0.966405 0.0382454 0.496917
519 1 0.938103 0.0994968 0.479198
529 2 0.886517 0.12834 0.446672
530 1 0.845577 0.144771 0.457743
531 1 0.870037 0.1114 0.423835
647 1 0.940578 0.41941 0.403566
655 2 0.932651 0.258752 0.448772
656 1 0.978318 0.246652 0.442556
657 1 0.913483 0.214264 0.451338
804 1 0.558346 0.46681 0.598518
805 2 0.539737 0.407506 0.524569
806 1 0.568683 0.418604 0.544564
807 1 0.568976 0.377405 0.511124
832 2 0.636798 0.441163 0.573629
833 1 0.664605 0.459928 0.592755
834 1 0.664878 0.450818 0.552684
844 2 0.81195 0.0731012 0.557839
845 1 0.782207 0.0833023 0.57783
846 1 0.845997 0.106886 0.559817
892 2 0.711351 0.45965 0.515159
893 1 0.701222 0.470012 0.490437
894 1 0.757562 0.474273 0.516883
964 2 0.617703 0.195728 0.5535
965 1 0.571397 0.193663 0.545229
966 1 0.622194 0.241552 0.562196
970 2 0.649629 0.309251 0.595196
972 1 0.650311 0.355013 0.585879
988 2 0.876323 0.332981 0.582694
989 1 0.859863 0.318905 0.559161
990 1 0.898298 0.374846 0.575698
1192 2 0.927292 0.455576 0.560334
1193 1 0.899293 0.469319 0.540253
1194 1 0.914807 0.489838 0.577668
1195 2 0.831076 0.298066 0.516786
1196 1 0.817722 0.326151 0.497059
1197 1 0.817929 0.254109 0.507753
1210 2 0.789985 0.1722 0.494673
1211 1 0.796463 0.141476 0.514383
1212 1 0.743532 0.163279 0.488756
1240 2 0.909628 0.166708 0.551381
1241 1 0.935165 0.139348 0.534258
1242 1 0.911054 0.210658 0.540031
1371 1 0.930241 0.148936 0.595195
115 2 0.357833 0.669519 0.411648
116 1 0.322939 0.69757 0.42205
122 1 0.212637 0.52149 0.410145
127 2 0.254079 0.755885 0.427193
128 1 0.255403 0.772678 0.402731
129 1 0.206418 0.756098 0.432022
149 1 0.476796 0.768972 0.409134
150 1 0.43346 0.707846 0.403478
167 1 0.175012 0.64031 0.40627
232 2 0.189061 0.584954 0.443584
233 1 0.21927 0.576544 0.463581
234 1 0.145989 0.581149 0.455308
373 2 0.0586185 0.880627 0.46256
374 1 0.093296 0.882187 0.48086
375 1 0.0682971 0.8369 0.452341
376 2 0.289426 0.807783 0.49209
377 1 0.328254 0.781751 0.498519
378 1 0.277472 0.78688 0.469459
388 2 0.0594563 0.575374 0.470642
389 1 0.0634808 0.526776 0.46964
390 1 0.016726 0.582771 0.459473
394 2 0.391557 0.581826 0.465906
395 1 0.384138 0.603688 0.442948
396 1 0.406491 0.536978 0.458696
544 2 0.118343 0.753927 0.448956
545 1 0.0999592 0.716438 0.436197
546 1 0.110692 0.741704 0.473663
550 2 0.483841 0.848707 0.430315
551 1 0.483292 0.832647 0.455051
682 2 0.393036 0.9562 0.439177
683 1 0.422863 0.918209 0.441249
684 1 0.374529 0.947996 0.415799
709 2 0.241681 0.93289 0.458909
710 1 0.278745 0.903052 0.463279
711 1 0.207967 0.911365 0.473754
782 1 0.0620507 0.659535 0.582449
958 2 0.435597 0.56011 0.595106
959 1 0.397811 0.543383 0.581372
1036 2 0.394122 0.705886 0.500388
1037 1 0.396656 0.661961 0.488937
1038 1 0.372812 0.694219 0.522991
1039 2 0.330995 0.689554 0.564733
1040 1 0.353121 0.666401 0.58394
1041 1 0.33878 0.736712 0.571176
1042 2 0.159154 0.539572 0.58248
1043 1 0.125363 0.567212 0.594406
1044 1 0.181585 0.574904 0.569049
1051 2 0.484689 0.759834 0.579284
1052 1 0.439725 0.777894 0.580996
1063 2 0.36262 0.818323 0.582364
1064 1 0.362273 0.863529 0.57213
1075 2 0.206347 0.646746 0.541674
1076 1 0.244206 0.67047 0.551986
1077 1 0.229705 0.619647 0.523883
1093 2 0.497314 0.794624 0.495601
1094 1 0.46271 0.760488 0.499263
1105 2 0.274676 0.559749 0.500508
1106 1 0.290802 0.537484 0.522162
1107 1 0.316887 0.56702 0.488165
1120 2 0.328453 0.501725 0.561551
1165 2 0.391335 0.945671 0.552917
1166 1 0.436064 0.929376 0.548179
1167 1 0.389632 0.985042 0.537886
1168 2 0.073515 0.668558 0.526961
1169 1 0.12056 0.664742 0.533092
1170 1 0.0683333 0.632462 0.509707
1315 2 0.0495515 0.815084 0.59226
1316 1 0.010864 0.818229 0.577098
1317 1 0.0769046 0.850785 0.582304
1336 2 0.161985 0.875112 0.510241
1337 1 0.147385 0.894627 0.532899
1338 1 0.200685 0.848887 0.516826
1405 2 0.0876027 0.940964 0.565208
1406 1 0.0970363 0.988948 0.561943
1407 1 0.0454942 0.945046 0.577154
145 2 0.927841 0.761862 0.435369
146 1 0.930085 0.713053 0.434665
147 1 0.883197 0.768949 0.444938
229 2 0.797188 0.932222 0.465034
230 1 0.806384 0.943338 0.440113
231 1 0.839386 0.94267 0.476231
254 1 0.524774 0.569753 0.417792
273 1 0.614396 0.727258 0.418539
277 2 0.920689 0.625739 0.422022
278 1 0.874103 0.627695 0.415436
382 2 0.610265 0.739886 0.463808
383 1 0.602028 0.698167 0.477204
384 1 0.648033 0.757386 0.477289
400 2 0.670571 0.592665 0.401213
415 2 0.561802 0.513001 0.476492
431 1 0.674134 0.523879 0.428546
469 2 0.812333 0.638592 0.503534
470 1 0.771766 0.645868 0.517216
471 1 0.842018 0.672416 0.51359
496 2 0.820495 0.500341 0.438034
498 1 0.834031 0.537272 0.422826
552 1 0.529278 0.866301 0.429284
553 2 0.608216 0.90214 0.426676
554 1 0.646168 0.873661 0.422068
555 1 0.624459 0.928906 0.44682
631 2 0.797583 0.796844 0.448483
632 1 0.769238 0.798681 0.427382
633 1 0.795505 0.843374 0.456469
685 2 0.941009 0.948101 0.469581
686 1 0.983435 0.923785 0.469045
687 1 0.933986 0.954376 0.444378
712 2 0.667744 0.96089 0.485959
713 1 0.6606 0.93294 0.506935
714 1 0.715095 0.953752 0.481489
850 2 0.899603 0.724937 0.535471
851 1 0.910426 0.772605 0.537552
852 1 0.943116 0.706212 0.531347
866 1 0.503118 0.910214 0.598909
871 2 0.649235 0.870747 0.542636
872 1 0.674316 0.836792 0.529023
873 1 0.644206 0.846763 0.565439
976 2 0.539656 0.637304 0.574805
977 1 0.520519 0.682695 0.576438
978 1 0.50115 0.609799 0.581335
994 2 0.823383 0.746223 0.59926
996 1 0.843021 0.727694 0.577811
1018 2 0.704148 0.662568 0.545033
1019 1 0.718617 0.637071 0.566128
1020 1 0.658407 0.64818 0.542593
1024 2 0.93931 0.857474 0.541495
1025 1 0.950931 0.88001 0.519604
1026 1 0.901223 0.884498 0.549267
1030 2 0.758902 0.590547 0.598203
1053 1 0.509413 0.800842 0.57608
1095 1 0.534674 0.767356 0.487596
1099 2 0.714389 0.775804 0.506003
1100 1 0.717398 0.735765 0.521225
1101 1 0.75291 0.770757 0.490419
1111 2 0.579327 0.636646 0.505626
1112 1 0.559165 0.632763 0.529282
1113 1 0.569696 0.592453 0.495353
1132 2 0.840102 0.506582 0.510065
1133 1 0.838582 0.50091 0.484252
1134 1 0.833678 0.555386 0.51101
1324 2 0.514503 0.889266 0.546877
1325 1 0.562459 0.891884 0.54346
1326 1 0.503377 0.857566 0.52769
1378 2 0.832134 0.935402 0.563323
1379 1 0.785978 0.932226 0.571299
1380 1 0.833196 0.983964 0.55848
1414 2 0.703823 0.951259 0.59519
1415 1 0.679275 0.934712 0.574924
730 2 0.0627864 0.349666 0.649275
731 1 0.0586654 0.391258 0.662213
732 1 0.019287 0.32945 0.653729
733 2 0.0739377 0.455177 0.714836
734 1 0.0942699 0.41258 0.721862
735 1 0.111436 0.485374 0.716483
748 2 0.302521 0.216549 0.718863
749 1 0.303453 0.260711 0.707623
750 1 0.280139 0.191334 0.699939
754 2 0.128779 0.336795 0.736403
755 1 0.162034 0.308177 0.747734
756 1 0.121739 0.312111 0.714319
757 2 0.35688 0.412655 0.731386
758 1 0.401511 0.396433 0.737208
759 1 0.341871 0.378268 0.714529
775 2 0.212705 0.249813 0.771362
776 1 0.241956 0.2787 0.785445
777 1 0.243617 0.232326 0.753375
790 2 0.401853 0.0640974 0.748376
791 1 0.407473 0.0163599 0.753088
792 1 0.364305 0.0731726 0.764091