ITEM: TIMESTEP
1832
ITEM: NUMBER OF ATOMS
1422
ITEM: BOX BOUNDS pp pp pp
-1.0093999999999999e+01 1.0093999999999999e+01
-9.9900000000000002e+00 9.9900000000000002e+00
-1.8785000000000000e+01 1.8785000000000000e+01
ITEM: ATOMS id type x y z vx vy vz ix iy iz
16 2 -8.94019 -1.66586 -12.8098 0 0 0 0 0 0
17 1 -8.97666 -1.24731 -11.9239 0 0 0 0 0 0
18 1 -9.89433 -1.77207 -13.0163 0 0 0 0 0 0
89 1 -1.22556 -0.832684 -15.4418 0 0 0 0 0 0
104 1 -5.72313 -0.5501 -13.2616 0 0 0 0 0 0
105 1 -4.70102 -1.33996 -12.4704 0 0 0 0 0 0
133 2 -6.96625 -0.721347 -14.5053 0 0 0 0 0 0
134 1 -7.49698 -0.0360627 -14.9631 0 0 0 0 0 0
135 1 -7.67813 -1.15672 -13.9894 0 0 0 0 0 0
182 1 -0.123828 -7.00058 -16.6204 0 0 0 0 0 0
187 2 -4.36252 -3.2521 -12.2417 0 0 0 0 0 0
188 1 -5.33559 -3.40186 -12.244 0 0 0 0 0 0
189 1 -4.13749 -3.63644 -13.1199 0 0 0 0 0 0
202 2 -2.99124 -6.44218 -18.7032 0 0 0 0 0 0
203 1 -3.27416 -6.62031 -17.7823 0 0 0 0 0 0
207 1 -9.40657 -6.25652 -11.5908 0 0 0 0 0 0
208 2 -7.73441 -5.02242 -14.6248 0 0 0 0 0 0
209 1 -7.55178 -4.35633 -15.3275 0 0 0 0 0 0
210 1 -8.39921 -5.55611 -15.1044 0 0 0 0 0 0
217 2 -7.05653 -3.60092 -12.3931 0 0 0 0 0 0
218 1 -7.75307 -2.93115 -12.5705 0 0 0 0 0 0
219 1 -7.22418 -4.20422 -13.1519 0 0 0 0 0 0
220 2 -3.73224 -4.37297 -14.6717 0 0 0 0 0 0
221 1 -2.79628 -4.50664 -14.4074 0 0 0 0 0 0
222 1 -3.64513 -3.89516 -15.5257 0 0 0 0 0 0
226 2 -3.54313 -3.13619 -17.1325 0 0 0 0 0 0
227 1 -3.9628 -3.57503 -17.9043 0 0 0 0 0 0
228 1 -2.68708 -2.85192 -17.5143 0 0 0 0 0 0
238 2 -4.65421 -7.62631 -11.3343 0 0 0 0 0 0
239 1 -5.47016 -8.16207 -11.3853 0 0 0 0 0 0
240 1 -3.95373 -8.29659 -11.4556 0 0 0 0 0 0
289 2 -9.41793 -1.12672 -17.2599 0 0 0 0 0 0
290 1 -9.14721 -0.39379 -16.6673 0 0 0 0 0 0
337 2 -1.25929 -4.93425 -13.6549 0 0 0 0 0 0
338 1 -0.462521 -4.39155 -13.8486 0 0 0 0 0 0
339 1 -1.0853 -5.19819 -12.7254 0 0 0 0 0 0
343 2 -0.137542 -8.07373 -12.8781 0 0 0 0 0 0
344 1 -0.262585 -7.28888 -12.3057 0 0 0 0 0 0
349 2 -3.92482 -6.82129 -16.1547 0 0 0 0 0 0
350 1 -4.13369 -6.0771 -15.5566 0 0 0 0 0 0
351 1 -3.0636 -7.11133 -15.7866 0 0 0 0 0 0
361 2 -7.74915 -3.43367 -16.8324 0 0 0 0 0 0
362 1 -8.33696 -2.69544 -17.0791 0 0 0 0 0 0
363 1 -7.66599 -3.9435 -17.6592 0 0 0 0 0 0
407 1 -5.65687 -0.949204 -15.8324 0 0 0 0 0 0
408 1 -4.6222 -1.70895 -16.6525 0 0 0 0 0 0
412 2 -1.12942 -2.1336 -18.1829 0 0 0 0 0 0
414 1 -0.215455 -2.28266 -18.4879 0 0 0 0 0 0
535 2 -8.53997 -7.09974 -12.9551 0 0 0 0 0 0
536 1 -9.07317 -7.39847 -13.705 0 0 0 0 0 0
537 1 -8.03181 -6.37696 -13.3764 0 0 0 0 0 0
592 2 -7.15393 -8.94071 -11.4241 0 0 0 0 0 0
593 1 -7.63428 -8.2701 -11.9564 0 0 0 0 0 0
594 1 -7.6357 -9.75806 -11.6723 0 0 0 0 0 0
595 2 -8.62377 -8.70839 -17.2186 0 0 0 0 0 0
596 1 -7.69392 -8.41574 -17.3377 0 0 0 0 0 0
597 1 -8.9588 -8.01266 -16.6172 0 0 0 0 0 0
598 2 -2.2942 -9.15206 -11.4557 0 0 0 0 0 0
599 1 -1.55526 -8.86049 -12.0269 0 0 0 0 0 0
610 2 -6.10342 -7.64506 -17.7142 0 0 0 0 0 0
611 1 -5.63385 -8.18792 -18.385 0 0 0 0 0 0
612 1 -5.37234 -7.43134 -17.0953 0 0 0 0 0 0
613 2 -1.31473 -7.1524 -15.2258 0 0 0 0 0 0
614 1 -0.964058 -7.74084 -14.5275 0 0 0 0 0 0
615 1 -1.31412 -6.30552 -14.7303 0 0 0 0 0 0
88 2 -0.480315 -1.4505 -15.5961 0 0 0 0 0 0
90 1 -0.701614 -1.73015 -16.5087 0 0 0 0 0 0
661 2 -9.6928 -6.60446 -15.7369 0 0 0 1 0 0
663 1 -10.0731 -6.08774 -16.4835 0 0 0 1 0 0
103 2 -5.0544 -0.435309 -12.5492 0 0 0 0 0 0
406 2 -4.97332 -0.803378 -16.5195 0 0 0 0 0 0
1161 1 -6.869 -6.15483 -18.3711 0 0 0 0 0 1
183 1 0.0912055 -7.64354 -17.9497 0 0 0 0 0 0
291 1 9.80116 -1.12317 -17.1105 0 0 0 -1 0 0
3 1 0.96471 -0.606082 -14.8691 0 0 0 0 0 0
37 2 3.72811 -5.42797 -12.3864 0 0 0 0 0 0
38 1 4.14395 -5.50522 -11.4925 0 0 0 0 0 0
39 1 4.48453 -5.04813 -12.8873 0 0 0 0 0 0
92 1 2.3293 -2.27727 -18.5952 0 0 0 0 0 0
97 2 3.89378 -2.03355 -14.8411 0 0 0 0 0 0
98 1 3.14437 -1.40948 -14.6817 0 0 0 0 0 0
99 1 4.38393 -1.91065 -14.0041 0 0 0 0 0 0
118 2 3.77685 -2.10249 -17.603 0 0 0 0 0 0
119 1 3.86024 -1.97005 -16.6344 0 0 0 0 0 0
120 1 4.51104 -1.53195 -17.9121 0 0 0 0 0 0
130 2 7.7442 -7.81764 -16.8717 0 0 0 0 0 0
131 1 7.81068 -7.55069 -15.9302 0 0 0 0 0 0
132 1 8.30464 -7.12813 -17.2812 0 0 0 0 0 0
178 2 5.77707 -0.255232 -18.2881 0 0 0 0 0 0
181 2 0.549725 -7.02625 -17.3312 0 0 0 0 0 0
190 2 0.930186 -3.51046 -14.3575 0 0 0 0 0 0
191 1 0.537675 -2.72813 -14.8035 0 0 0 0 0 0
192 1 1.59897 -3.80324 -15.0046 0 0 0 0 0 0
197 1 1.36257 -3.51888 -12.6208 0 0 0 0 0 0
250 2 2.83792 -7.24984 -15.8082 0 0 0 0 0 0
251 1 2.05259 -7.24478 -16.3987 0 0 0 0 0 0
252 1 3.05894 -6.2934 -15.8273 0 0 0 0 0 0
256 2 3.14719 -4.44261 -15.9619 0 0 0 0 0 0
257 1 3.56919 -3.78598 -15.3692 0 0 0 0 0 0
258 1 3.37257 -4.04634 -16.8183 0 0 0 0 0 0
274 2 7.13702 -3.11448 -15.7043 0 0 0 0 0 0
275 1 6.83982 -3.59174 -16.5059 0 0 0 0 0 0
276 1 7.48341 -2.29516 -16.1154 0 0 0 0 0 0
331 2 2.66195 -7.81827 -13.1174 0 0 0 0 0 0
332 1 2.70396 -7.70187 -14.0917 0 0 0 0 0 0
333 1 2.95626 -6.92353 -12.8282 0 0 0 0 0 0
345 1 0.838135 -8.12007 -12.9247 0 0 0 0 0 0
476 1 6.17787 -0.513353 -12.6055 0 0 0 0 0 0
484 2 8.0293 -0.721154 -16.7298 0 0 0 0 0 0
485 1 7.25126 -0.548582 -17.3024 0 0 0 0 0 0
487 2 6.49985 -4.39482 -18.1561 0 0 0 0 0 0
489 1 6.20536 -5.30899 -18.3501 0 0 0 0 0 0
490 2 5.15463 -1.90199 -12.3585 0 0 0 0 0 0
491 1 5.43148 -2.81143 -12.5963 0 0 0 0 0 0
492 1 4.88844 -2.02414 -11.4213 0 0 0 0 0 0
502 2 5.96949 -7.04532 18.7656 0 0 0 0 0 -1
503 1 6.45611 -7.47025 -18.0654 0 0 0 0 0 0
504 1 5.15534 -7.56122 18.7335 0 0 0 0 0 -1
505 2 5.95804 -4.26947 -13.4746 0 0 0 0 0 0
506 1 6.80952 -4.56953 -13.0908 0 0 0 0 0 0
507 1 6.27391 -3.92246 -14.3374 0 0 0 0 0 0
520 2 8.20309 -6.895 -14.3111 0 0 0 0 0 0
521 1 8.27701 -6.15452 -13.6704 0 0 0 0 0 0
522 1 7.38576 -7.33626 -13.9768 0 0 0 0 0 0
532 2 9.03232 -5.48824 -17.7684 0 0 0 0 0 0
533 1 9.39829 -5.195 -18.6279 0 0 0 0 0 0
534 1 8.20762 -4.96142 -17.763 0 0 0 0 0 0
602 1 2.94083 -8.81955 -11.6137 0 0 0 0 0 0
604 2 5.82494 -8.08174 -13.7389 0 0 0 0 0 0
605 1 5.05291 -7.94837 -13.1791 0 0 0 0 0 0
606 1 5.45905 -8.65477 -14.4413 0 0 0 0 0 0
634 2 8.54573 -2.02183 -13.3423 0 0 0 0 0 0
635 1 8.01186 -1.24591 -13.0813 0 0 0 0 0 0
636 1 8.09024 -2.31214 -14.1541 0 0 0 0 0 0
643 2 8.50601 -4.7521 -12.6065 0 0 0 0 0 0
645 1 8.72819 -3.806 -12.7123 0 0 0 0 0 0
662 1 9.68362 -6.71844 -15.1924 0 0 0 0 0 0
1 2 1.83114 -0.358551 -14.4924 0 0 0 0 0 0
672 1 7.38757 -9.57785 -16.7233 0 0 0 0 1 0
706 2 4.53865 -9.56161 -15.7024 0 0 0 0 1 0
707 1 3.85287 -8.87943 -15.8497 0 0 0 0 1 0
196 2 1.64355 -3.76359 -11.7133 0 0 0 0 0 0
198 1 2.36394 -4.38636 -11.9495 0 0 0 0 0 0
644 1 9.12906 -5.01994 -11.8955 0 0 0 0 0 0
1158 1 1.16474 -5.82456 -18.6251 0 0 0 0 0 1
67 2 10.0564 3.20131 -14.7756 0 0 0 -1 0 0
69 1 -9.76437 3.76118 -14.0572 0 0 0 0 0 0
153 1 -0.33054 8.25061 -14.2674 0 0 0 0 0 0
154 2 -6.90775 6.5376 -12.0086 0 0 0 0 0 0
156 1 -7.51055 5.82549 -12.2918 0 0 0 0 0 0
244 2 -2.55451 0.375589 -15.6657 0 0 0 0 0 0
245 1 -3.37345 0.0340219 -16.0792 0 0 0 0 0 0
246 1 -2.94215 0.923257 -14.948 0 0 0 0 0 0
286 2 -3.93498 3.67736 -11.6785 0 0 0 0 0 0
287 1 -3.90566 4.56413 -12.1029 0 0 0 0 0 0
292 2 -3.82671 1.78755 -13.6869 0 0 0 0 0 0
293 1 -3.73676 2.43322 -12.954 0 0 0 0 0 0
294 1 -4.24509 1.03589 -13.2173 0 0 0 0 0 0
298 2 -4.25237 6.20349 -12.7448 0 0 0 0 0 0
299 1 -5.19798 6.44584 -12.6695 0 0 0 0 0 0
300 1 -3.85202 6.95922 -12.2491 0 0 0 0 0 0
322 2 -4.75846 3.43212 -15.7543 0 0 0 0 0 0
323 1 -4.42617 2.84964 -15.0439 0 0 0 0 0 0
324 1 -4.19323 4.22054 -15.6367 0 0 0 0 0 0
325 2 -8.59625 1.11282 -15.8067 0 0 0 0 0 0
326 1 -9.18198 1.7595 -15.3582 0 0 0 0 0 0
327 1 -8.02425 1.72855 -16.3112 0 0 0 0 0 0
334 2 -0.90876 4.35178 -16.1723 0 0 0 0 0 0
335 1 -1.73568 4.73668 -15.8028 0 0 0 0 0 0
346 2 -3.09975 5.63759 -15.1761 0 0 0 0 0 0
347 1 -2.8614 6.52876 -15.513 0 0 0 0 0 0
348 1 -3.49714 5.86708 -14.3072 0 0 0 0 0 0
358 2 -6.90143 2.74434 -17.2665 0 0 0 0 0 0
359 1 -6.16204 3.07988 -16.7006 0 0 0 0 0 0
360 1 -6.43261 2.03935 -17.7567 0 0 0 0 0 0
370 2 -9.21769 5.09088 -12.906 0 0 0 0 0 0
371 1 -9.51513 5.19743 -11.9807 0 0 0 0 0 0
372 1 -9.46071 5.95866 -13.2956 0 0 0 0 0 0
380 1 -0.690339 5.00776 -17.8211 0 0 0 0 0 0
391 2 -5.81616 0.647042 -18.7042 0 0 0 0 0 0
392 1 -5.5289 0.103751 -17.9334 0 0 0 0 0 0
454 2 -2.12261 8.04586 -16.1859 0 0 0 0 0 0
455 1 -1.29356 8.03474 -16.703 0 0 0 0 0 0
456 1 -2.59047 8.79084 -16.5781 0 0 0 0 0 0
457 2 -8.55597 4.39888 -18.657 0 0 0 0 0 0
458 1 -7.95009 3.86935 -18.086 0 0 0 0 0 0
607 2 -9.86141 7.56951 -13.9496 0 0 0 0 0 0
609 1 -9.45548 7.90688 -14.7782 0 0 0 0 0 0
628 2 -7.82227 7.13746 -18.4397 0 0 0 0 0 0
629 1 -8.15576 7.5301 -17.6071 0 0 0 0 0 0
630 1 -8.11834 6.20922 -18.3716 0 0 0 0 0 0
694 2 -8.59816 8.707 -11.7568 0 0 0 0 0 0
695 1 -9.17546 8.43626 -12.5009 0 0 0 0 0 0
696 1 -7.89689 8.02621 -11.8416 0 0 0 0 0 0
697 2 -9.07513 8.61178 -16.4079 0 0 0 0 0 0
698 1 -8.90312 9.53936 -16.6792 0 0 0 0 0 0
699 1 -9.91443 8.41855 -16.8762 0 0 0 0 0 0
700 2 -3.37698 8.31682 -11.317 0 0 0 0 0 0
701 1 -3.02837 9.19426 -11.5695 0 0 0 0 0 0
138 1 -9.94997 4.87173 -17.4895 0 0 0 1 0 0
262 2 -0.252037 1.72743 -16.4179 0 0 0 0 0 0
263 1 -0.622345 2.63725 -16.453 0 0 0 0 0 0
264 1 -1.06705 1.20759 -16.2487 0 0 0 0 0 0
336 1 -0.250637 4.65531 -15.511 0 0 0 0 0 0
379 2 -0.367134 5.50675 -18.603 0 0 0 0 0 0
475 2 6.83647 0.21264 -12.6815 0 0 0 0 0 0
477 1 6.40466 0.87052 -12.0996 0 0 0 0 0 0
486 1 7.99486 0.0607647 -16.1357 0 0 0 0 0 0
68 1 9.87786 3.88476 -15.4542 0 0 0 -1 0 0
608 1 9.37615 7.6716 -14.1517 0 0 0 -1 0 0
2 1 1.71003 0.591829 -14.3071 0 0 0 0 0 0
52 2 1.47185 2.38852 -14.3388 0 0 0 0 0 0
53 1 0.898418 2.16423 -15.0994 0 0 0 0 0 0
54 1 1.24305 3.33169 -14.2186 0 0 0 0 0 0
79 2 3.70242 5.58242 -13.8056 0 0 0 0 0 0
80 1 3.91342 4.62777 -13.7211 0 0 0 0 0 0
81 1 4.43372 5.96188 -13.2711 0 0 0 0 0 0
82 2 4.108 2.87189 -13.4428 0 0 0 0 0 0
83 1 3.2182 2.49705 -13.6068 0 0 0 0 0 0
84 1 4.373 2.42854 -12.6077 0 0 0 0 0 0
124 2 1.04095 5.15575 -14.3726 0 0 0 0 0 0
125 1 1.9936 5.27264 -14.1684 0 0 0 0 0 0
126 1 0.747049 6.08389 -14.2688 0 0 0 0 0 0
136 2 9.58597 5.1122 -16.8055 0 0 0 0 0 0
137 1 9.36736 6.03208 -17.068 0 0 0 0 0 0
151 2 0.503992 7.85674 -14.555 0 0 0 0 0 0
152 1 0.401588 7.88748 -15.5317 0 0 0 0 0 0
157 2 3.16695 7.3024 -17.7259 0 0 0 0 0 0
158 1 3.64674 6.45309 -17.8307 0 0 0 0 0 0
159 1 3.36444 7.534 -16.7958 0 0 0 0 0 0
160 2 3.22719 8.03491 -15.0469 0 0 0 0 0 0
161 1 2.30101 8.09791 -14.7335 0 0 0 0 0 0
162 1 3.5007 7.20635 -14.6012 0 0 0 0 0 0
180 1 5.38877 0.640927 -18.1847 0 0 0 0 0 0
280 2 7.09391 5.4607 -15.5853 0 0 0 0 0 0
281 1 6.52664 4.66679 -15.6477 0 0 0 0 0 0
282 1 7.89987 5.15857 -16.0432 0 0 0 0 0 0
304 2 4.64614 2.2214 -17.9447 0 0 0 0 0 0
305 1 4.94071 2.47128 -17.0398 0 0 0 0 0 0
306 1 3.69855 1.99808 -17.8158 0 0 0 0 0 0
310 2 8.87259 7.68158 -17.6486 0 0 0 0 0 0
311 1 8.85128 7.6855 -18.6288 0 0 0 0 0 0
312 1 8.09805 8.23784 -17.4188 0 0 0 0 0 0
316 2 5.77035 3.0011 -15.5972 0 0 0 0 0 0
317 1 5.21116 2.93668 -14.7911 0 0 0 0 0 0
318 1 6.50512 2.38903 -15.3768 0 0 0 0 0 0
385 2 4.42482 4.936 -18.5243 0 0 0 0 0 0
386 1 4.711 4.02815 -18.2988 0 0 0 0 0 0
397 2 1.94588 1.66834 -18.0606 0 0 0 0 0 0
398 1 1.18214 1.55834 -17.4511 0 0 0 0 0 0
472 2 7.90367 1.38647 -14.9426 0 0 0 0 0 0
473 1 8.67056 1.96285 -14.7394 0 0 0 0 0 0
474 1 7.66758 1.0219 -14.0613 0 0 0 0 0 0
538 2 5.75101 6.78963 -12.4697 0 0 0 0 0 0
539 1 6.27261 7.23763 -13.1626 0 0 0 0 0 0
540 1 6.47559 6.41577 -11.9264 0 0 0 0 0 0
616 2 0.420711 7.7541 -17.2873 0 0 0 0 0 0
617 1 1.36381 7.79574 -17.5468 0 0 0 0 0 0
618 1 0.137041 6.97703 -17.8134 0 0 0 0 0 0
619 2 7.5647 7.83657 -14.3968 0 0 0 0 0 0
620 1 7.37521 6.97568 -14.8478 0 0 0 0 0 0
621 1 7.36813 8.45837 -15.1314 0 0 0 0 0 0
649 2 8.15626 8.73247 -11.7946 0 0 0 0 0 0
650 1 7.98933 8.61077 -12.7464 0 0 0 0 0 0
651 1 8.16689 7.80712 -11.4816 0 0 0 0 0 0
670 2 7.02424 9.5074 -16.5525 0 0 0 0 0 0
671 1 6.09818 9.74809 -16.3349 0 0 0 0 0 0
704 1 4.47865 7.70339 -11.52 0 0 0 0 0 0
708 1 4.00359 9.62618 -15.4758 0 0 0 0 0 0
1097 1 1.93554 3.25953 -18.7631 0 0 0 0 0 1
36 1 -3.90402 -6.16026 -10.8739 0 0 0 0 0 0
7 2 -7.18366 -0.541033 -7.07767 0 0 0 0 0 0
8 1 -7.2176 -1.34146 -6.51776 0 0 0 0 0 0
9 1 -6.32451 -0.656661 -7.53134 0 0 0 0 0 0
19 2 -8.42086 -0.785506 -10.2096 0 0 0 0 0 0
20 1 -7.98262 -1.60902 -9.91548 0 0 0 0 0 0
21 1 -7.67032 -0.159152 -10.1937 0 0 0 0 0 0
34 2 -3.45811 -5.35364 -10.5157 0 0 0 0 0 0
35 1 -3.74005 -4.67468 -11.1556 0 0 0 0 0 0
40 2 -7.09079 -3.20962 -9.66349 0 0 0 0 0 0
41 1 -6.51347 -3.91052 -9.31588 0 0 0 0 0 0
42 1 -7.10613 -3.44535 -10.6165 0 0 0 0 0 0
43 2 -3.03921 -1.87541 -10.1161 0 0 0 0 0 0
44 1 -2.07213 -1.9768 -10.2145 0 0 0 0 0 0
45 1 -3.37517 -2.3886 -10.8744 0 0 0 0 0 0
49 2 -6.08398 -7.02432 -6.403 0 0 0 0 0 0
50 1 -5.90758 -6.48459 -7.20094 0 0 0 0 0 0
51 1 -6.63355 -6.40475 -5.87945 0 0 0 0 0 0
61 2 -5.38408 -5.30298 -8.50912 0 0 0 0 0 0
62 1 -5.07919 -4.58002 -7.91364 0 0 0 0 0 0
63 1 -4.60172 -5.3935 -9.09748 0 0 0 0 0 0
76 2 -1.28264 -9.40376 -8.82853 0 0 0 0 0 0
78 1 -1.14011 -9.1715 -7.88641 0 0 0 0 0 0
109 2 -4.61676 -0.80753 -8.20004 0 0 0 0 0 0
110 1 -4.01253 -1.22025 -8.8686 0 0 0 0 0 0
111 1 -3.97543 -0.234363 -7.71904 0 0 0 0 0 0
121 2 -5.78727 -0.519028 -3.91423 0 0 0 0 0 0
123 1 -6.7195 -0.79107 -3.81671 0 0 0 0 0 0
169 2 -5.41542 -9.76197 -7.24143 0 0 0 0 0 0
170 1 -6.21171 -9.65853 -7.81059 0 0 0 0 0 0
171 1 -5.37051 -8.85958 -6.88033 0 0 0 0 0 0
172 2 -0.756182 -8.91097 -6.11783 0 0 0 0 0 0
174 1 -1.46319 -8.94363 -5.43946 0 0 0 0 0 0
184 2 -4.91847 -3.20999 -6.86297 0 0 0 0 0 0
185 1 -5.69253 -3.03475 -6.29225 0 0 0 0 0 0
186 1 -4.75658 -2.3283 -7.2548 0 0 0 0 0 0
199 2 -7.35833 -2.88701 -5.55574 0 0 0 0 0 0
200 1 -7.74743 -2.39814 -4.79412 0 0 0 0 0 0
201 1 -7.29776 -3.78825 -5.16338 0 0 0 0 0 0
205 2 -9.77748 -5.71318 -10.8669 0 0 0 0 0 0
206 1 -9.08034 -5.87581 -10.1885 0 0 0 0 0 0
214 2 -0.809949 -6.01152 -11.1514 0 0 0 0 0 0
215 1 -1.67168 -5.83236 -10.7184 0 0 0 0 0 0
216 1 -0.313543 -6.4831 -10.4525 0 0 0 0 0 0
235 2 -0.246656 -2.39689 -10.1398 0 0 0 0 0 0
237 1 -0.243837 -3.13826 -9.52345 0 0 0 0 0 0
241 2 -2.63478 -4.66366 -6.34409 0 0 0 0 0 0
242 1 -3.32722 -3.99441 -6.51793 0 0 0 0 0 0
243 1 -1.86597 -4.09758 -6.16418 0 0 0 0 0 0
267 1 -9.3762 -1.26446 -3.6486 0 0 0 0 0 0
313 2 -7.2621 -5.38723 -4.40729 0 0 0 0 0 0
314 1 -8.07405 -5.3116 -3.86958 0 0 0 0 0 0
315 1 -6.75806 -6.01874 -3.85088 0 0 0 0 0 0
367 2 -7.61165 -9.14447 -8.74269 0 0 0 0 0 0
368 1 -7.38008 -9.10632 -9.69844 0 0 0 0 0 0
369 1 -8.46819 -9.6113 -8.77735 0 0 0 0 0 0
410 1 -4.54889 -1.76878 -3.84091 0 0 0 0 0 0
411 1 -3.34794 -2.20386 -4.653 0 0 0 0 0 0
421 2 -3.73033 -6.69639 -4.97559 0 0 0 0 0 0
422 1 -3.25807 -6.05024 -5.55493 0 0 0 0 0 0
423 1 -4.54884 -6.84771 -5.48681 0 0 0 0 0 0
424 2 -2.25457 -1.71701 -5.91432 0 0 0 0 0 0
425 1 -1.29718 -1.84484 -5.95122 0 0 0 0 0 0
426 1 -2.36605 -0.799162 -6.24089 0 0 0 0 0 0
436 2 -2.65887 -9.02824 -4.11003 0 0 0 0 0 0
437 1 -3.04042 -8.16903 -4.40063 0 0 0 0 0 0
494 1 -9.67224 -0.194038 -8.81899 0 0 0 0 0 0
495 1 -8.93555 -0.224173 -7.53342 0 0 0 0 0 0
523 2 -7.83102 -6.39571 -9.13958 0 0 0 0 0 0
524 1 -7.76842 -7.32394 -8.84543 0 0 0 0 0 0
525 1 -6.91995 -6.07872 -8.99914 0 0 0 0 0 0
526 2 -9.0853 -3.37092 -7.75722 0 0 0 0 0 0
527 1 -8.40735 -3.31371 -8.45763 0 0 0 0 0 0
528 1 -8.55576 -3.22043 -6.9567 0 0 0 0 0 0
541 2 -7.52258 -9.09104 -4.80186 0 0 0 0 0 0
542 1 -8.36954 -8.64334 -4.57108 0 0 0 0 0 0
543 1 -7.24516 -8.58389 -5.58256 0 0 0 0 0 0
600 1 -1.87794 -9.1396 -10.5708 0 0 0 0 0 0
173 1 -0.208572 -9.6712 -5.82932 0 0 0 0 0 0
664 2 -9.76512 -7.71708 -4.11187 0 0 0 1 0 0
409 2 -3.8167 -2.42719 -3.81687 0 0 0 0 0 0
589 2 7.41925 -9.76283 -9.66151 0 0 0 0 0 0
340 2 -0.0273925 -3.67889 -5.52727 0 0 0 0 0 0
341 1 0.0350127 -3.56935 -4.55299 0 0 0 0 0 0
584 1 0.133406 -8.50749 -9.42331 0 0 0 0 0 0
4 2 1.05191 -0.19315 -8.86666 0 0 0 0 0 0
5 1 1.24808 -0.754154 -8.08731 0 0 0 0 0 0
6 1 0.579123 -0.831431 -9.43628 0 0 0 0 0 0
28 2 9.24338 -6.47315 -6.20986 0 0 0 0 0 0
29 1 8.5686 -5.90492 -5.78536 0 0 0 0 0 0
30 1 9.23769 -6.09518 -7.10943 0 0 0 0 0 0
31 2 2.31062 -3.75996 -9.01076 0 0 0 0 0 0
32 1 2.33218 -4.68527 -8.675 0 0 0 0 0 0
33 1 2.08222 -3.89238 -9.95464 0 0 0 0 0 0
46 2 7.49807 -4.82871 -4.90134 0 0 0 0 0 0
47 1 7.12178 -4.0116 -5.29765 0 0 0 0 0 0
48 1 7.91494 -4.49162 -4.08331 0 0 0 0 0 0
58 2 4.86336 -5.61324 -9.96345 0 0 0 0 0 0
59 1 5.00123 -6.49537 -9.56505 0 0 0 0 0 0
60 1 5.45353 -5.06319 -9.40746 0 0 0 0 0 0
73 2 3.8669 -7.77436 -6.68063 0 0 0 0 0 0
74 1 3.19554 -7.1987 -7.10323 0 0 0 0 0 0
75 1 4.48532 -7.86818 -7.43698 0 0 0 0 0 0
94 2 7.96176 -0.394351 -6.53407 0 0 0 0 0 0
96 1 8.76168 -0.303518 -7.0966 0 0 0 0 0 0
100 2 3.87289 -1.7784 -5.28142 0 0 0 0 0 0
102 1 3.11043 -1.75742 -5.89836 0 0 0 0 0 0
175 2 3.63914 -6.22829 -4.32287 0 0 0 0 0 0
177 1 3.64158 -6.79612 -5.12229 0 0 0 0 0 0
211 2 1.67652 -2.08308 -6.96052 0 0 0 0 0 0
212 1 1.95706 -2.71053 -7.66446 0 0 0 0 0 0
213 1 1.0691 -2.65184 -6.43887 0 0 0 0 0 0
223 2 1.93658 -6.20236 -7.84551 0 0 0 0 0 0
224 1 1.3153 -6.22244 -7.08551 0 0 0 0 0 0
225 1 1.47208 -6.76943 -8.49974 0 0 0 0 0 0
236 1 0.374208 -2.73062 -10.8201 0 0 0 0 0 0
285 1 4.12234 -0.701458 -9.32195 0 0 0 0 0 0
328 2 0.369405 -6.42746 -5.61552 0 0 0 0 0 0
329 1 0.653881 -6.62628 -4.69792 0 0 0 0 0 0
330 1 -0.116544 -7.25117 -5.83695 0 0 0 0 0 0
342 1 0.0914911 -4.65127 -5.60502 0 0 0 0 0 0
354 1 6.61243 -6.11581 -4.12354 0 0 0 0 0 0
355 2 4.58359 -2.36156 -9.69108 0 0 0 0 0 0
356 1 3.81459 -2.9095 -9.42809 0 0 0 0 0 0
357 1 5.31512 -2.88369 -9.29545 0 0 0 0 0 0
508 2 6.44848 -3.97795 -8.44425 0 0 0 0 0 0
509 1 7.36762 -4.32629 -8.50371 0 0 0 0 0 0
510 1 6.46604 -3.58184 -7.54897 0 0 0 0 0 0
511 2 6.40859 -2.59864 -6.04563 0 0 0 0 0 0
512 1 5.52598 -2.22354 -5.83535 0 0 0 0 0 0
513 1 6.92773 -1.78813 -6.24053 0 0 0 0 0 0
583 2 0.772339 -7.81362 -9.69748 0 0 0 0 0 0
585 1 1.53664 -8.34906 -9.99986 0 0 0 0 0 0
586 2 5.14833 -8.20251 -9.06628 0 0 0 0 0 0
587 1 5.96511 -8.67199 -9.33843 0 0 0 0 0 0
588 1 4.4717 -8.5891 -9.6617 0 0 0 0 0 0
591 1 8.31089 -9.6586 -9.29588 0 0 0 0 0 0
601 2 3.06274 -9.14806 -10.699 0 0 0 0 0 0
646 2 9.01835 -0.973934 -4.02582 0 0 0 0 0 0
648 1 8.67445 -0.848912 -4.93737 0 0 0 0 0 0
658 2 9.02187 -4.92831 -8.54629 0 0 0 0 0 0
659 1 9.40377 -5.23312 -9.39278 0 0 0 0 0 0
660 1 9.73331 -4.31866 -8.23776 0 0 0 0 0 0
665 1 9.6083 -8.17869 -3.81331 0 0 0 0 0 0
666 1 10.0694 -7.26979 -4.91923 0 0 0 0 0 0
572 1 4.17522 -9.60742 -6.31944 0 0 0 0 1 0
101 1 3.57215 -1.1619 -4.58152 0 0 0 0 0 0
647 1 8.28823 -1.47027 -3.61113 0 0 0 0 0 0
288 1 -4.78362 3.71834 -11.2193 0 0 0 0 0 0
77 1 -1.98246 9.89304 -8.7344 0 0 0 0 -1 0
13 2 -5.71808 3.16263 -9.18706 0 0 0 0 0 0
14 1 -5.90956 2.25783 -9.52433 0 0 0 0 0 0
15 1 -4.77499 3.07074 -8.93898 0 0 0 0 0 0
25 2 -0.661451 1.9287 -8.12793 0 0 0 0 0 0
55 2 -2.8412 0.788821 -6.86538 0 0 0 0 0 0
56 1 -3.28199 1.49781 -6.34893 0 0 0 0 0 0
57 1 -2.11102 1.28072 -7.2979 0 0 0 0 0 0
64 2 -4.33208 2.67641 -5.44693 0 0 0 0 0 0
65 1 -4.41057 3.65389 -5.42668 0 0 0 0 0 0
66 1 -5.252 2.41563 -5.64829 0 0 0 0 0 0
106 2 -2.90561 3.34995 -9.06282 0 0 0 0 0 0
107 1 -2.88033 3.31678 -10.0385 0 0 0 0 0 0
108 1 -2.0748 2.8854 -8.82143 0 0 0 0 0 0
117 1 -3.21459 2.68014 -3.96788 0 0 0 0 0 0
139 2 -7.10842 2.00435 -6.01855 0 0 0 0 0 0
140 1 -8.08597 2.09398 -6.04919 0 0 0 0 0 0
141 1 -7.02707 1.09246 -6.36983 0 0 0 0 0 0
142 2 -8.20741 4.138 -8.16995 0 0 0 0 0 0
143 1 -7.41291 3.61934 -8.40115 0 0 0 0 0 0
144 1 -7.88896 4.6372 -7.39037 0 0 0 0 0 0
148 2 -0.711035 4.76577 -4.21885 0 0 0 0 0 0
155 1 -6.62322 6.25413 -11.1139 0 0 0 0 0 0
166 2 -6.91868 3.85076 -4.05708 0 0 0 0 0 0
168 1 -7.0963 3.2438 -4.80544 0 0 0 0 0 0
259 2 -5.97668 0.600619 -10.1642 0 0 0 0 0 0
260 1 -5.6137 0.291676 -11.0241 0 0 0 0 0 0
261 1 -5.47331 0.047155 -9.53441 0 0 0 0 0 0
295 2 -1.50184 6.23751 -6.35764 0 0 0 0 0 0
296 1 -1.71067 7.03109 -5.81456 0 0 0 0 0 0
297 1 -1.11393 5.63835 -5.67895 0 0 0 0 0 0
319 2 -7.5943 5.84697 -5.98996 0 0 0 0 0 0
320 1 -7.35036 5.21708 -5.28323 0 0 0 0 0 0
321 1 -7.65068 6.67265 -5.46221 0 0 0 0 0 0
460 2 -9.61988 5.51142 -10.1823 0 0 0 0 0 0
461 1 -9.22931 4.77876 -9.6671 0 0 0 0 0 0
462 1 -9.24251 6.25975 -9.6811 0 0 0 0 0 0
493 2 -9.80953 0.046628 -7.88246 0 0 0 0 0 0
547 2 -4.12468 5.43218 -5.18982 0 0 0 0 0 0
548 1 -4.58739 6.26692 -5.41581 0 0 0 0 0 0
549 1 -3.3034 5.55206 -5.69182 0 0 0 0 0 0
559 2 -7.46948 8.16084 -4.43741 0 0 0 0 0 0
560 1 -7.57051 9.12815 -4.58503 0 0 0 0 0 0
562 2 -5.01747 8.01782 -5.6358 0 0 0 0 0 0
563 1 -5.86986 8.02227 -5.14938 0 0 0 0 0 0
564 1 -5.15993 8.79599 -6.2179 0 0 0 0 0 0
574 2 -8.09112 7.15518 -8.46502 0 0 0 0 0 0
575 1 -7.9941 6.79363 -7.56166 0 0 0 0 0 0
576 1 -7.25535 6.83267 -8.86522 0 0 0 0 0 0
577 2 -5.89857 5.86948 -9.52315 0 0 0 0 0 0
578 1 -5.9206 4.90321 -9.35682 0 0 0 0 0 0
579 1 -5.01811 6.08551 -9.14869 0 0 0 0 0 0
580 2 -3.39499 5.97497 -8.31214 0 0 0 0 0 0
581 1 -3.21601 5.05419 -8.59907 0 0 0 0 0 0
582 1 -2.62064 6.11164 -7.72584 0 0 0 0 0 0
667 2 -3.3863 8.80765 -8.57565 0 0 0 0 0 0
668 1 -3.52645 7.87186 -8.33551 0 0 0 0 0 0
669 1 -4.11729 9.26137 -8.10675 0 0 0 0 0 0
675 1 -0.534121 8.51358 -4.70686 0 0 0 0 0 0
676 2 -9.81642 9.10564 -9.21852 0 0 0 0 0 0
677 1 -9.66733 9.05666 -10.1849 0 0 0 0 0 0
678 1 -9.16485 8.43456 -8.91478 0 0 0 0 0 0
679 2 -2.4032 8.35531 -4.87937 0 0 0 0 0 0
680 1 -2.48179 9.26701 -4.52157 0 0 0 0 0 0
681 1 -3.34766 8.18923 -5.08394 0 0 0 0 0 0
702 1 -3.39029 8.41926 -10.3474 0 0 0 0 0 0
478 2 -9.87281 2.11115 -6.04563 0 0 0 1 0 0
479 1 -10.0075 1.45253 -6.75914 0 0 0 1 0 0
641 1 -9.91772 4.29826 -7.69145 0 0 0 1 0 0
150 1 -1.28288 4.09064 -3.80922 0 0 0 0 0 0
590 1 7.64885 9.80024 -10.5264 0 0 0 0 -1 0
95 1 7.35931 0.258844 -6.95129 0 0 0 0 0 0
603 1 3.28202 9.88551 -10.8528 0 0 0 0 -1 0
26 1 -0.0909946 1.25495 -8.55405 0 0 0 0 0 0
27 1 -0.0523238 2.21508 -7.41177 0 0 0 0 0 0
566 1 0.297345 6.68677 -7.07522 0 0 0 0 0 0
10 2 5.10364 1.78769 -11.0746 0 0 0 0 0 0
11 1 4.64011 1.1683 -10.4727 0 0 0 0 0 0
12 1 5.2506 2.52515 -10.4464 0 0 0 0 0 0
22 2 2.68893 6.41643 -9.26661 0 0 0 0 0 0
23 1 2.75986 5.5163 -8.90413 0 0 0 0 0 0
24 1 2.07719 6.8131 -8.61827 0 0 0 0 0 0
70 2 5.21476 3.57832 -8.94625 0 0 0 0 0 0
71 1 4.34931 3.7512 -8.51757 0 0 0 0 0 0
72 1 5.63939 4.45792 -8.88191 0 0 0 0 0 0
85 2 6.10924 2.30187 -4.92969 0 0 0 0 0 0
86 1 6.16593 1.91161 -5.82666 0 0 0 0 0 0
87 1 6.27655 3.24491 -5.12703 0 0 0 0 0 0
112 2 2.86877 4.1747 -7.53894 0 0 0 0 0 0
113 1 2.95313 4.72129 -6.74573 0 0 0 0 0 0
114 1 2.19156 3.53283 -7.25064 0 0 0 0 0 0
247 2 5.9933 1.31566 -7.54573 0 0 0 0 0 0
248 1 5.91553 2.14796 -8.05629 0 0 0 0 0 0
249 1 5.2574 0.819631 -7.96136 0 0 0 0 0 0
272 1 1.13202 4.38519 -3.95039 0 0 0 0 0 0
283 2 3.91061 0.235875 -9.1166 0 0 0 0 0 0
284 1 2.93515 0.206777 -9.0615 0 0 0 0 0 0
301 2 1.08884 2.40915 -6.05736 0 0 0 0 0 0
302 1 0.554047 2.28089 -5.2438 0 0 0 0 0 0
303 1 1.95767 2.14834 -5.68839 0 0 0 0 0 0
309 1 3.81873 6.70421 -4.32072 0 0 0 0 0 0
364 2 6.45312 6.01263 -8.45207 0 0 0 0 0 0
365 1 5.94489 6.85318 -8.4981 0 0 0 0 0 0
366 1 7.31972 6.36609 -8.14785 0 0 0 0 0 0
401 1 4.35784 2.33798 -4.67635 0 0 0 0 0 0
402 1 3.08003 3.04453 -4.21576 0 0 0 0 0 0
463 2 8.80246 7.09889 -7.62202 0 0 0 0 0 0
464 1 8.57188 7.34412 -6.7002 0 0 0 0 0 0
465 1 9.23422 7.90451 -7.95793 0 0 0 0 0 0
466 2 7.63985 7.07044 -5.09715 0 0 0 0 0 0
467 1 7.12605 6.25565 -5.26601 0 0 0 0 0 0
468 1 8.02999 6.85138 -4.22081 0 0 0 0 0 0
480 1 9.84061 2.88972 -6.41451 0 0 0 0 0 0
481 2 5.90591 5.0088 -5.88793 0 0 0 0 0 0
482 1 5.10474 5.57014 -5.89608 0 0 0 0 0 0
483 1 6.18234 5.08955 -6.8192 0 0 0 0 0 0
565 2 1.17173 7.11293 -7.02045 0 0 0 0 0 0
567 1 0.958076 7.83851 -6.39339 0 0 0 0 0 0
568 2 3.75402 6.79065 -6.07627 0 0 0 0 0 0
569 1 2.86071 6.87792 -6.4743 0 0 0 0 0 0
570 1 4.06039 7.72063 -6.16334 0 0 0 0 0 0
571 2 4.50599 9.45437 -6.23392 0 0 0 0 0 0
573 1 4.85713 9.28657 -7.13618 0 0 0 0 0 0
638 1 9.94626 1.86544 -4.33341 0 0 0 0 0 0
640 2 9.37618 4.36124 -7.30385 0 0 0 0 0 0
642 1 9.19355 5.31403 -7.39462 0 0 0 0 0 0
652 2 7.93223 6.1264 -10.8743 0 0 0 0 0 0
653 1 7.45104 5.87438 -10.0658 0 0 0 0 0 0
654 1 8.83801 5.82125 -10.6549 0 0 0 0 0 0
673 2 0.355012 8.7917 -5.00573 0 0 0 0 0 0
674 1 0.864893 8.73316 -4.16932 0 0 0 0 0 0
688 2 6.27822 9.27049 -4.13794 0 0 0 0 0 0
689 1 5.59627 9.39139 -4.83444 0 0 0 0 0 0
690 1 6.77443 8.51075 -4.51155 0 0 0 0 0 0
691 2 5.47826 8.58622 -8.65112 0 0 0 0 0 0
692 1 6.19916 9.16169 -8.98992 0 0 0 0 0 0
693 1 4.8904 8.54111 -9.43568 0 0 0 0 0 0
703 2 3.93481 8.22678 -10.8953 0 0 0 0 0 0
705 1 3.41387 7.5177 -10.4489 0 0 0 0 0 0
400 2 3.38995 2.19862 -4.60364 0 0 0 0 0 0
265 2 -8.41411 -1.38538 -3.50273 0 0 0 0 0 0
419 1 -3.70965 -5.57293 -3.58285 0 0 0 0 0 0
438 1 -3.02488 -9.05783 -3.19987 0 0 0 0 0 0
194 1 -0.246986 -4.28972 -2.34937 0 0 0 0 0 0
266 1 -8.3451 -1.2414 -2.53468 0 0 0 0 0 0
268 2 -1.75563 -1.53999 -2.20138 0 0 0 0 0 0
269 1 -2.50801 -1.88227 -2.72926 0 0 0 0 0 0
270 1 -1.02743 -2.10387 -2.5347 0 0 0 0 0 0
403 2 -7.89602 -0.67329 -0.838807 0 0 0 0 0 0
404 1 -6.97551 -0.490276 -0.573186 0 0 0 0 0 0
405 1 -8.28817 -0.953322 0.0191315 0 0 0 0 0 0
418 2 -3.5642 -4.96696 -2.82525 0 0 0 0 0 0
420 1 -3.69256 -4.08666 -3.2485 0 0 0 0 0 0
433 2 -4.55338 -4.89108 -0.293024 0 0 0 0 0 0
434 1 -5.48768 -5.16841 -0.372381 0 0 0 0 0 0
435 1 -4.29603 -4.80317 -1.23787 0 0 0 0 0 0
439 2 -1.12338 -5.78873 -1.84972 0 0 0 0 0 0
440 1 -1.44016 -6.24269 -1.04864 0 0 0 0 0 0
441 1 -1.98235 -5.50564 -2.23277 0 0 0 0 0 0
448 2 -7.0139 -6.22928 -0.654164 0 0 0 0 0 0
449 1 -6.72747 -6.73294 -1.44561 0 0 0 0 0 0
450 1 -6.77613 -6.85992 0.0582032 0 0 0 0 0 0
451 2 -1.41312 -9.36866 0.608148 0 0 0 0 0 0
453 1 -1.91839 -8.58209 0.33187 0 0 0 0 0 0
514 2 -9.24438 -5.61169 -2.36797 0 0 0 0 0 0
515 1 -8.61941 -5.83603 -1.65076 0 0 0 0 0 0
516 1 -9.39276 -6.4757 -2.80634 0 0 0 0 0 0
622 2 -6.23422 -7.49252 -2.93889 0 0 0 0 0 0
623 1 -6.60552 -8.20818 -3.49408 0 0 0 0 0 0
624 1 -5.40255 -7.91556 -2.62676 0 0 0 0 0 0
625 2 -4.08068 -8.67862 -1.76676 0 0 0 0 0 0
626 1 -3.63035 -8.10192 -1.11896 0 0 0 0 0 0
627 1 -4.32946 -9.43827 -1.19712 0 0 0 0 0 0
896 1 -0.0721868 -7.55981 2.52876 0 0 0 0 0 0
897 1 -0.0741763 -8.455 1.3432 0 0 0 0 0 0
916 2 -2.87997 -7.02272 0.110587 0 0 0 0 0 0
917 1 -3.09412 -7.13966 1.06435 0 0 0 0 0 0
918 1 -3.41916 -6.21729 -0.0509022 0 0 0 0 0 0
922 2 -8.83192 -6.25969 3.05662 0 0 0 0 0 0
923 1 -8.65499 -5.42372 2.56476 0 0 0 0 0 0
924 1 -9.81648 -6.28162 3.03318 0 0 0 0 0 0
936 1 -3.57671 -4.22675 3.21727 0 0 0 0 0 0
940 2 -3.44081 -3.34487 1.71231 0 0 0 0 0 0
941 1 -3.85945 -3.87077 0.996703 0 0 0 0 0 0
942 1 -2.59997 -3.07434 1.27257 0 0 0 0 0 0
1003 2 -8.94453 -1.17215 1.64692 0 0 0 0 0 0
1004 1 -8.59526 -0.456975 2.2196 0 0 0 0 0 0
1005 1 -9.90732 -1.05784 1.80946 0 0 0 0 0 0
1066 2 -3.72757 -7.25155 2.68319 0 0 0 0 0 0
1067 1 -3.95209 -6.44527 3.19513 0 0 0 0 0 0
1068 1 -2.90121 -7.50603 3.14585 0 0 0 0 0 0
1078 2 -8.47042 -3.95198 1.64292 0 0 0 0 0 0
1079 1 -8.63733 -2.9918 1.72251 0 0 0 0 0 0
1080 1 -8.08961 -4.0248 0.762854 0 0 0 0 0 0
1121 1 -5.05001 -0.873208 2.95682 0 0 0 0 0 0
1122 1 -4.15993 -1.76396 2.10935 0 0 0 0 0 0
1126 2 -1.25061 -2.49364 0.340697 0 0 0 0 0 0
1127 1 -1.48316 -2.0811 -0.513679 0 0 0 0 0 0
1128 1 -0.291187 -2.33211 0.375068 0 0 0 0 0 0
1303 2 -8.34345 -8.83206 2.16043 0 0 0 0 0 0
1304 1 -7.47986 -8.62462 1.7552 0 0 0 0 0 0
1305 1 -8.5752 -7.94941 2.5138 0 0 0 0 0 0
1318 2 -5.86703 -8.13488 1.07964 0 0 0 0 0 0
1319 1 -5.47526 -8.97457 0.763842 0 0 0 0 0 0
1320 1 -5.19214 -7.84493 1.72977 0 0 0 0 0 0
193 2 0.157517 -3.49959 -2.76581 0 0 0 0 0 0
959 1 -2.6868 -0.00378634 2.15872 0 0 0 0 0 0
1106 1 -5.04516 -0.051557 0.738143 0 0 0 0 0 0
1120 2 -4.46596 -0.832539 2.17156 0 0 0 0 0 0
803 1 -0.481403 -0.668474 2.81816 0 0 0 0 0 0
848 1 -6.88232 -0.0472883 3.85314 0 0 0 0 0 0
353 1 5.25077 -6.66249 -3.779 0 0 0 0 0 0
556 2 8.01503 -8.75316 -3.33895 0 0 0 0 0 0
557 1 7.3675 -8.01763 -3.42745 0 0 0 0 0 0
558 1 7.48953 -9.48262 -3.73123 0 0 0 0 0 0
895 2 0.49214 -7.76811 1.75373 0 0 0 0 0 0
163 2 4.53763 -3.72211 -3.46737 0 0 0 0 0 0
164 1 4.27218 -3.14355 -4.21361 0 0 0 0 0 0
165 1 4.26108 -4.60231 -3.80244 0 0 0 0 0 0
176 1 2.77058 -6.44333 -3.92475 0 0 0 0 0 0
195 1 1.03469 -3.49491 -2.32651 0 0 0 0 0 0
352 2 6.19083 -6.76588 -3.5177 0 0 0 0 0 0
417 1 1.20577 -0.399829 -0.788104 0 0 0 0 0 0
427 2 2.61897 -3.56934 -1.44356 0 0 0 0 0 0
428 1 3.03057 -4.3055 -0.938891 0 0 0 0 0 0
429 1 3.30848 -3.45148 -2.12827 0 0 0 0 0 0
442 2 1.19332 -6.77009 -3.00431 0 0 0 0 0 0
443 1 0.348993 -6.44163 -2.62687 0 0 0 0 0 0
444 1 1.57868 -7.16241 -2.19122 0 0 0 0 0 0
445 2 2.06028 -7.69196 -0.541628 0 0 0 0 0 0
446 1 2.35446 -8.63001 -0.563552 0 0 0 0 0 0
447 1 1.51512 -7.68759 0.275253 0 0 0 0 0 0
497 1 6.4213 -0.332279 -2.94513 0 0 0 0 0 0
499 2 6.79023 -2.24397 -2.77816 0 0 0 0 0 0
500 1 6.00641 -2.76867 -3.05649 0 0 0 0 0 0
501 1 7.40985 -2.96792 -2.52927 0 0 0 0 0 0
517 2 8.05714 -9.51979 -0.727579 0 0 0 0 0 0
519 1 8.19099 -9.13177 -1.6196 0 0 0 0 0 0
529 2 6.58101 -6.00777 -0.924483 0 0 0 0 0 0
530 1 5.6583 -5.75206 -0.720904 0 0 0 0 0 0
531 1 6.46004 -6.35927 -1.83307 0 0 0 0 0 0
655 2 8.43786 -4.36173 -2.3245 0 0 0 0 0 0
656 1 9.36265 -4.69256 -2.28405 0 0 0 0 0 0