LAMMPS data file via write_data, version 29 Sep 2021, timestep = 1832

1422 atoms
2 atom types
948 bonds
1 bond types
474 angles
1 angle types

-10.094 10.094 xlo xhi
-9.99 9.99 ylo yhi
-18.785 18.785 zlo zhi

Masses

1 1.008
2 15.999

Pair Coeffs # lj/charmmfsw/coul/long

1 0.046 0.400014 0.046 0.400014
2 0.1521 3.15057 0.1521 3.15057

Bond Coeffs # harmonic

1 450 0.9572

Angle Coeffs # charmm

1 55 104.52 0 0

Atoms # full

16 6 2 -0.834 -8.940194179630643 -1.6658610976808386 -12.809832522992824 0 0 0
17 6 1 0.417 -8.976663911250846 -1.2473059854825674 -11.923914316484689 0 0 0
18 6 1 0.417 -9.894334697291567 -1.7720734070073023 -13.016300021864051 0 0 0
89 30 1 0.417 -1.225563853526125 -0.8326842200598367 -15.441837624725604 0 0 0
104 35 1 0.417 -5.723128241496586 -0.5501002475445372 -13.261634550055836 0 0 0
105 35 1 0.417 -4.701018085642686 -1.3399572370063484 -12.470354392367103 0 0 0
133 45 2 -0.834 -6.96624604288865 -0.721347091818543 -14.505339608612115 0 0 0
134 45 1 0.417 -7.496984529203225 -0.036062670919997035 -14.963116293662589 0 0 0
135 45 1 0.417 -7.678129861975907 -1.1567235046961384 -13.989402960032198 0 0 0
182 61 1 0.417 -0.12382755721107155 -7.000579890063255 -16.62042046392741 0 0 0
187 63 2 -0.834 -4.362522808736021 -3.252098415704008 -12.241714501681836 0 0 0
188 63 1 0.417 -5.335586872806566 -3.4018589402480064 -12.243989859398528 0 0 0
189 63 1 0.417 -4.137493192425187 -3.6364418533630514 -13.119940597587426 0 0 0
202 68 2 -0.834 -2.991243569684811 -6.442182976254561 -18.703180641528935 0 0 0
203 68 1 0.417 -3.274164553467374 -6.620309573919969 -17.782261510296774 0 0 0
207 69 1 0.417 -9.406574276782573 -6.256519784475134 -11.5908458992039 0 0 0
208 70 2 -0.834 -7.734409664388664 -5.022423483819095 -14.62481812339269 0 0 0
209 70 1 0.417 -7.551776166315709 -4.356325030050285 -15.327484401551146 0 0 0
210 70 1 0.417 -8.399214682765939 -5.556109425724069 -15.10442270213032 0 0 0
217 73 2 -0.834 -7.05652711759324 -3.6009210407493675 -12.39314712227078 0 0 0
218 73 1 0.417 -7.7530719155995955 -2.9311527774229478 -12.57051587566701 0 0 0
219 73 1 0.417 -7.224177503862184 -4.204223529020995 -13.151867396841991 0 0 0
220 74 2 -0.834 -3.732238381861296 -4.372970878622613 -14.67173669907318 0 0 0
221 74 1 0.417 -2.7962760025285034 -4.506635370014376 -14.407420502314439 0 0 0
222 74 1 0.417 -3.645127273703684 -3.895156635122433 -15.525691602575561 0 0 0
226 76 2 -0.834 -3.543133853432029 -3.1361877736909034 -17.13248865337352 0 0 0
227 76 1 0.417 -3.9628028349981483 -3.5750286866808403 -17.904275638170347 0 0 0
228 76 1 0.417 -2.687080622853085 -2.851921374758594 -17.514304424938654 0 0 0
238 80 2 -0.834 -4.654209645085872 -7.626313082870452 -11.33428619076504 0 0 0
239 80 1 0.417 -5.470164384726747 -8.16206948030529 -11.385325608906285 0 0 0
240 80 1 0.417 -3.9537333967121735 -8.296585074100966 -11.455619252213213 0 0 0
289 97 2 -0.834 -9.417929664255176 -1.1267210010574185 -17.25992253751525 0 0 0
290 97 1 0.417 -9.147205894689964 -0.3937904460509008 -16.667260577140194 0 0 0
337 113 2 -0.834 -1.2592853032595674 -4.934249038495021 -13.654914182751252 0 0 0
338 113 1 0.417 -0.46252066831928107 -4.391552296005711 -13.848587763519776 0 0 0
339 113 1 0.417 -1.0852962541707631 -5.1981916457620425 -12.725370220092437 0 0 0
343 115 2 -0.834 -0.1375423736140561 -8.073731445061682 -12.878117905498971 0 0 0
344 115 1 0.417 -0.2625853747328097 -7.288883768405531 -12.305748137702508 0 0 0
349 117 2 -0.834 -3.924816016574151 -6.821285337614662 -16.154690751209785 0 0 0
350 117 1 0.417 -4.133694701950572 -6.077102257128561 -15.556555021523243 0 0 0
351 117 1 0.417 -3.06360469320133 -7.111329646376537 -15.786644608542595 0 0 0
361 121 2 -0.834 -7.749153291117663 -3.433670686798479 -16.83236968919952 0 0 0
362 121 1 0.417 -8.33696416400624 -2.6954391373350477 -17.079066707058722 0 0 0
363 121 1 0.417 -7.6659900680783055 -3.943497820226788 -17.659188331898974 0 0 0
407 136 1 0.417 -5.656872755920548 -0.9492036980965634 -15.832404810427919 0 0 0
408 136 1 0.417 -4.622201704898392 -1.7089498097522318 -16.6525117811969 0 0 0
412 138 2 -0.834 -1.1294202730591578 -2.1336007098760366 -18.18294435423902 0 0 0
414 138 1 0.417 -0.2154545308397146 -2.2826640896091788 -18.487918548602686 0 0 0
535 179 2 -0.834 -8.539966800807832 -7.099737667871924 -12.955064445392438 0 0 0
536 179 1 0.417 -9.073166250791099 -7.3984742929136385 -13.7050021210738 0 0 0
537 179 1 0.417 -8.031808112797208 -6.376956758713806 -13.376369765673228 0 0 0
592 198 2 -0.834 -7.15392606518658 -8.940709742779255 -11.424101178559164 0 0 0
593 198 1 0.417 -7.634284192221191 -8.270095529286143 -11.95639682397252 0 0 0
594 198 1 0.417 -7.6357048682323185 -9.758062701928079 -11.672313471964035 0 0 0
595 199 2 -0.834 -8.62376579382552 -8.708393057872158 -17.218556366020106 0 0 0
596 199 1 0.417 -7.6939219129253145 -8.415737525323026 -17.33773397704066 0 0 0
597 199 1 0.417 -8.958804225102305 -8.012657569747633 -16.617162577910626 0 0 0
598 200 2 -0.834 -2.2941950975840855 -9.152056825550115 -11.455692742949065 0 0 0
599 200 1 0.417 -1.555258383197214 -8.860494998341455 -12.026923146630578 0 0 0
610 204 2 -0.834 -6.103417226418084 -7.6450580524555285 -17.71418526822909 0 0 0
611 204 1 0.417 -5.633853424599017 -8.187916927962634 -18.384960981032844 0 0 0
612 204 1 0.417 -5.372335925212759 -7.431339967451498 -17.095294539988405 0 0 0
613 205 2 -0.834 -1.3147264478359297 -7.1524049712225155 -15.225807921034544 0 0 0
614 205 1 0.417 -0.9640580202502506 -7.740844939322436 -14.527483319383096 0 0 0
615 205 1 0.417 -1.314120415880439 -6.305522090790967 -14.73027549175623 0 0 0
88 30 2 -0.834 -0.4803148834093828 -1.4504963017514179 -15.596054031401014 0 0 0
90 30 1 0.417 -0.7016136921516812 -1.7301509599240015 -16.508700606751084 0 0 0
661 221 2 -0.834 -9.692803171372482 -6.604460418721132 -15.73691357404776 1 0 0
663 221 1 0.417 -10.073079760882907 -6.087742711242369 -16.483454708153268 1 0 0
103 35 2 -0.834 -5.054400387350643 -0.4353090813612957 -12.549165246067325 0 0 0
406 136 2 -0.834 -4.973321327692271 -0.8033778181846922 -16.51949749715777 0 0 0
1161 387 1 0.417 -6.868995993015487 -6.154834064579531 -18.371148008570657 0 0 1
183 61 1 0.417 0.09120554476549063 -7.6435416550010125 -17.9496963407587 0 0 0
291 97 1 0.417 9.801155062332807 -1.1231688296556088 -17.110546772903426 -1 0 0
3 1 1 0.417 0.9647096738019094 -0.6060821098208191 -14.869067200416804 0 0 0
37 13 2 -0.834 3.728107440228325 -5.427970080236903 -12.386425279615295 0 0 0
38 13 1 0.417 4.143945233996122 -5.505220412213515 -11.492518439859055 0 0 0
39 13 1 0.417 4.484526871366834 -5.048134617384716 -12.887329081207529 0 0 0
92 31 1 0.417 2.329296613203536 -2.2772721672564233 -18.595165852268725 0 0 0
97 33 2 -0.834 3.893781614472417 -2.033545393225381 -14.841055111785238 0 0 0
98 33 1 0.417 3.144373077736843 -1.4094798441428305 -14.68172822261311 0 0 0
99 33 1 0.417 4.3839277459599 -1.910653651464812 -14.004099126993573 0 0 0
118 40 2 -0.834 3.7768497060474013 -2.102492054663718 -17.60303429486966 0 0 0
119 40 1 0.417 3.860237242167374 -1.9700451279565023 -16.634367538508393 0 0 0
120 40 1 0.417 4.5110428027442 -1.5319497020386597 -17.912056778666255 0 0 0
130 44 2 -0.834 7.7441971716482385 -7.8176408796417425 -16.87170734372891 0 0 0
131 44 1 0.417 7.810684137214607 -7.550691276019917 -15.930229848472873 0 0 0
132 44 1 0.417 8.304640603181475 -7.128127393290801 -17.281228214498782 0 0 0
178 60 2 -0.834 5.777068762564501 -0.25523226311309 -18.288115481377936 0 0 0
181 61 2 -0.834 0.5497251198626696 -7.026253809403329 -17.331199983637298 0 0 0
190 64 2 -0.834 0.9301855347616736 -3.510456528652462 -14.357490047348142 0 0 0
191 64 1 0.417 0.5376745614371817 -2.728126914850619 -14.8034672267503 0 0 0
192 64 1 0.417 1.5989708121361488 -3.8032440997141714 -15.004569412425035 0 0 0
197 66 1 0.417 1.362568888396738 -3.518876781201723 -12.620818882489958 0 0 0
250 84 2 -0.834 2.8379153538795427 -7.24984275291373 -15.808176373321064 0 0 0
251 84 1 0.417 2.0525925798877096 -7.24477863922389 -16.398650432194017 0 0 0
252 84 1 0.417 3.0589408467036723 -6.293401459344298 -15.827320113804257 0 0 0
256 86 2 -0.834 3.147192974450957 -4.442614352622574 -15.961922660836054 0 0 0
257 86 1 0.417 3.569187005739222 -3.785982651385487 -15.369202993414284 0 0 0
258 86 1 0.417 3.3725705038708647 -4.046335358999184 -16.818317689165024 0 0 0
274 92 2 -0.834 7.1370189193596625 -3.1144846333887846 -15.704316601354744 0 0 0
275 92 1 0.417 6.839820853931131 -3.5917387229978153 -16.505863003532934 0 0 0
276 92 1 0.417 7.483405703642255 -2.2951568291968756 -16.1154453853976 0 0 0
331 111 2 -0.834 2.661950373849903 -7.8182716007586315 -13.11742870952781 0 0 0
332 111 1 0.417 2.7039597916437192 -7.701873730364909 -14.091675843831265 0 0 0
333 111 1 0.417 2.95625675194514 -6.923530115963289 -12.828180935510812 0 0 0
345 115 1 0.417 0.8381354973502971 -8.120070913890148 -12.924700795630413 0 0 0
476 159 1 0.417 6.1778653081358215 -0.513353488835964 -12.605530629957581 0 0 0
484 162 2 -0.834 8.029304231778793 -0.7211536798736584 -16.729839886373878 0 0 0
485 162 1 0.417 7.251262918256844 -0.5485823724553498 -17.302370815488292 0 0 0
487 163 2 -0.834 6.499853622266314 -4.3948192291021835 -18.15606927835113 0 0 0
489 163 1 0.417 6.205358899728061 -5.3089856187070525 -18.350119086945153 0 0 0
490 164 2 -0.834 5.1546300899010165 -1.9019921800829567 -12.358516241661379 0 0 0
491 164 1 0.417 5.431478837635564 -2.811434011834238 -12.596333425354004 0 0 0
492 164 1 0.417 4.888442754077171 -2.0241444805555733 -11.42131421669779 0 0 0
502 168 2 -0.834 5.969485731259145 -7.045316890187784 18.765588463105882 0 0 -1
503 168 1 0.417 6.456108444814275 -7.470253215541976 -18.065432463098364 0 0 0
504 168 1 0.417 5.155337496982363 -7.561224376911578 18.733489373131594 0 0 -1
505 169 2 -0.834 5.958035801180885 -4.269469073367895 -13.474614446771215 0 0 0
506 169 1 0.417 6.80952247978235 -4.569530748595246 -13.090808346902655 0 0 0
507 169 1 0.417 6.273905153002899 -3.9224609578221075 -14.33738773814824 0 0 0
520 174 2 -0.834 8.20308573354989 -6.894995824532004 -14.311139061375012 0 0 0
521 174 1 0.417 8.277013472882707 -6.154519646651349 -13.670377931421925 0 0 0
522 174 1 0.417 7.385756948134249 -7.336260205491819 -13.97676244997397 0 0 0
532 178 2 -0.834 9.03232058298485 -5.488237073660717 -17.76840116816413 0 0 0
533 178 1 0.417 9.398289799255487 -5.19499507030978 -18.6278716988665 0 0 0
534 178 1 0.417 8.207621111260075 -4.961416647609741 -17.762959071743644 0 0 0
602 201 1 0.417 2.940828227671766 -8.819547897846213 -11.61370089031206 0 0 0
604 202 2 -0.834 5.8249408002299035 -8.081743617413977 -13.738905061059185 0 0 0
605 202 1 0.417 5.052910389371345 -7.948368152115168 -13.179088859328552 0 0 0
606 202 1 0.417 5.459050171715742 -8.654772836013835 -14.441308910371793 0 0 0
634 212 2 -0.834 8.545725930667581 -2.0218312024047176 -13.342304767223306 0 0 0
635 212 1 0.417 8.011860018916792 -1.2459093797104217 -13.081309599520594 0 0 0
636 212 1 0.417 8.09024176398833 -2.312136743441194 -14.15412718403193 0 0 0
643 215 2 -0.834 8.506007000891477 -4.752101010327929 -12.606463338828409 0 0 0
645 215 1 0.417 8.728191385825568 -3.806002577680901 -12.712320870706666 0 0 0
662 221 1 0.417 9.68362103928636 -6.718437342269646 -15.192423798581016 0 0 0
1 1 2 -0.834 1.8311438403622486 -0.3585507131017636 -14.492410316792816 0 0 0
672 224 1 0.417 7.387572826834297 -9.57785145705365 -16.723271866548494 0 1 0
706 236 2 -0.834 4.538650172761745 -9.561610870197214 -15.702420836175168 0 1 0
707 236 1 0.417 3.8528654948444507 -8.879428289894056 -15.84965935272433 0 1 0
196 66 2 -0.834 1.6435454133249159 -3.7635884856018738 -11.713325104414958 0 0 0
198 66 1 0.417 2.36394356406885 -4.386362318547722 -11.949522869201054 0 0 0
644 215 1 0.417 9.12905826653764 -5.019940941460854 -11.895477236687535 0 0 0
1158 386 1 0.417 1.1647420473672445 -5.824562058863693 -18.625069595196596 0 0 1
67 23 2 -0.834 10.056374025404258 3.201311568059843 -14.77564610295798 -1 0 0
69 23 1 0.417 -9.764371626075263 3.7611780231893515 -14.057173084046923 0 0 0
153 51 1 0.417 -0.3305402368327193 8.250609781909587 -14.267423237129965 0 0 0
154 52 2 -0.834 -6.9077543890450555 6.537595140623749 -12.008610786987482 0 0 0
156 52 1 0.417 -7.510546175402113 5.825494070065745 -12.291832421209504 0 0 0
244 82 2 -0.834 -2.5545083767173917 0.37558911358473296 -15.665686789232065 0 0 0
245 82 1 0.417 -3.373451892482435 0.03402193276657243 -16.07915483070847 0 0 0
246 82 1 0.417 -2.942147276353597 0.9232572017210431 -14.948049893411783 0 0 0
286 96 2 -0.834 -3.9349794963222924 3.677356331430823 -11.678526639785808 0 0 0
287 96 1 0.417 -3.9056581885809347 4.564128582563333 -12.102888936868494 0 0 0
292 98 2 -0.834 -3.826707847481884 1.7875469914976705 -13.68692913831548 0 0 0
293 98 1 0.417 -3.7367630863536587 2.4332213994970457 -12.954028685738255 0 0 0
294 98 1 0.417 -4.245093904191731 1.0358872673275101 -13.217339438296857 0 0 0
298 100 2 -0.834 -4.252365944236725 6.20348784703258 -12.744835711002503 0 0 0
299 100 1 0.417 -5.1979775198484 6.445842153278786 -12.669458141433434 0 0 0
300 100 1 0.417 -3.85202490957064 6.959222367740668 -12.249078536049101 0 0 0
322 108 2 -0.834 -4.758457871437316 3.43211500998631 -15.75426853618674 0 0 0
323 108 1 0.417 -4.426169029379524 2.8496447254067414 -15.043949487383546 0 0 0
324 108 1 0.417 -4.19322544082436 4.220540742832536 -15.636688363910253 0 0 0
325 109 2 -0.834 -8.596247626184613 1.112815166361149 -15.80671441896541 0 0 0
326 109 1 0.417 -9.181984953642033 1.759504649183036 -15.358177417867894 0 0 0
327 109 1 0.417 -8.02424563685778 1.7285465744053699 -16.3111529470986 0 0 0
334 112 2 -0.834 -0.9087600087723825 4.35178203455854 -16.172343284557094 0 0 0
335 112 1 0.417 -1.7356839758577196 4.7366763678072665 -15.802844352794478 0 0 0
346 116 2 -0.834 -3.099746949466971 5.637592268998195 -15.176112016903787 0 0 0
347 116 1 0.417 -2.8613955237511854 6.528757054018966 -15.513042689852536 0 0 0
348 116 1 0.417 -3.497136106288745 5.8670801278872355 -14.30715426580815 0 0 0
358 120 2 -0.834 -6.901427667208321 2.744337912026535 -17.266505912647528 0 0 0
359 120 1 0.417 -6.1620421043947475 3.079875458342058 -16.700644807245176 0 0 0
360 120 1 0.417 -6.432609627852109 2.0393463428996457 -17.75673455167539 0 0 0
370 124 2 -0.834 -9.217692883091141 5.090881480811616 -12.905972649986012 0 0 0
371 124 1 0.417 -9.515133907806568 5.197430214198411 -11.980675460598565 0 0 0
372 124 1 0.417 -9.460705813380057 5.958659065156851 -13.295577675209149 0 0 0
380 127 1 0.417 -0.6903394852349628 5.007760568361746 -17.82114434413913 0 0 0
391 131 2 -0.834 -5.816159162831098 0.6470415923663657 -18.704224233324823 0 0 0
392 131 1 0.417 -5.528896416914226 0.10375144670348593 -17.93338360373669 0 0 0
454 152 2 -0.834 -2.122609098013355 8.045860432564085 -16.185869886281992 0 0 0
455 152 1 0.417 -1.2935611730571204 8.034744739164214 -16.703020545479877 0 0 0
456 152 1 0.417 -2.5904676542873313 8.790836743851248 -16.578072116830427 0 0 0
457 153 2 -0.834 -8.555973552779959 4.398884440757341 -18.65700566554627 0 0 0
458 153 1 0.417 -7.95009278400814 3.869349082858621 -18.085961585646363 0 0 0
607 203 2 -0.834 -9.861414533057475 7.56951237048004 -13.949616554306797 0 0 0
609 203 1 0.417 -9.455476823969033 7.9068764276948365 -14.778171228066713 0 0 0
628 210 2 -0.834 -7.822266266872103 7.137460068706023 -18.43967839127668 0 0 0
629 210 1 0.417 -8.155755256670913 7.530097584195535 -17.607138330803703 0 0 0
630 210 1 0.417 -8.118342095171146 6.209215554962664 -18.371604625784308 0 0 0
694 232 2 -0.834 -8.598163450154175 8.706998791963414 -11.756797543910384 0 0 0
695 232 1 0.417 -9.1754605708633 8.43626101245635 -12.50093188859715 0 0 0
696 232 1 0.417 -7.896891175965448 8.026207812367602 -11.841575741808853 0 0 0
697 233 2 -0.834 -9.075129759511968 8.611777928763807 -16.407861076444313 0 0 0
698 233 1 0.417 -8.90311590987964 9.53936137771966 -16.679195966495513 0 0 0
699 233 1 0.417 -9.914431626811245 8.418554790906155 -16.87617616983097 0 0 0
700 234 2 -0.834 -3.376975976109779 8.316822073616729 -11.316956863064023 0 0 0
701 234 1 0.417 -3.028373445248819 9.194255190037579 -11.569470796887451 0 0 0
138 46 1 0.417 -9.949969406012718 4.871725653232581 -17.48951584268618 1 0 0
262 88 2 -0.834 -0.2520365560064435 1.7274256232141545 -16.4179009061434 0 0 0
263 88 1 0.417 -0.622344615003513 2.637254775248786 -16.45303987471816 0 0 0
264 88 1 0.417 -1.0670451759301454 1.2075893115472256 -16.2486609224326 0 0 0
336 112 1 0.417 -0.25063654501834043 4.655312825409273 -15.510998201444194 0 0 0
379 127 2 -0.834 -0.3671343904578113 5.506750531225797 -18.60304859473091 0 0 0
475 159 2 -0.834 6.836470339841514 0.21263994919303877 -12.681544762799005 0 0 0
477 159 1 0.417 6.404657221749417 0.8705196760038539 -12.099587899076806 0 0 0
486 162 1 0.417 7.994856689297534 0.06076472538499557 -16.13574070940979 0 0 0
68 23 1 0.417 9.877860400902188 3.8847566373290947 -15.45420909131256 -1 0 0
608 203 1 0.417 9.37615109918725 7.671596532008567 -14.15166919034612 -1 0 0
2 1 1 0.417 1.7100345600106852 0.5918294006953766 -14.307109415112622 0 0 0
52 18 2 -0.834 1.4718548648703629 2.3885162810628446 -14.338848028445657 0 0 0
53 18 1 0.417 0.8984179845973789 2.164231612451172 -15.099357656623015 0 0 0
54 18 1 0.417 1.2430485666884943 3.3316856502645615 -14.21861784331997 0 0 0
79 27 2 -0.834 3.702415891825858 5.582419503494689 -13.805552620393946 0 0 0
80 27 1 0.417 3.913421246979152 4.627771756405908 -13.72108881031211 0 0 0
81 27 1 0.417 4.433717765416053 5.9618780161333635 -13.27111470576547 0 0 0
82 28 2 -0.834 4.108004164078216 2.8718874790715323 -13.442825189254277 0 0 0
83 28 1 0.417 3.218203131566439 2.497051678118625 -13.606835036386727 0 0 0
84 28 1 0.417 4.373004515408511 2.428538191949443 -12.607689014943189 0 0 0
124 42 2 -0.834 1.0409514415194117 5.155746296048578 -14.372579026090705 0 0 0
125 42 1 0.417 1.9936043543549733 5.272641002431242 -14.168357516882974 0 0 0
126 42 1 0.417 0.7470490312967283 6.0838942992839105 -14.268811094656373 0 0 0
136 46 2 -0.834 9.585966011481018 5.112202836897783 -16.805524458462155 0 0 0
137 46 1 0.417 9.367360190752088 6.032077901086954 -17.067950628503826 0 0 0
151 51 2 -0.834 0.5039920786021138 7.856743581209719 -14.554987048959894 0 0 0
152 51 1 0.417 0.40158832531808153 7.887481867513305 -15.53165517844326 0 0 0
157 53 2 -0.834 3.166946983207529 7.302401389177735 -17.7259401553756 0 0 0
158 53 1 0.417 3.646736166046309 6.453092116337052 -17.830654136830347 0 0 0
159 53 1 0.417 3.3644405115501663 7.533998688026335 -16.79581713344212 0 0 0
160 54 2 -0.834 3.2271948701957966 8.034913130574667 -15.046948014961623 0 0 0
161 54 1 0.417 2.3010072317081285 8.097912608915241 -14.733451396494155 0 0 0
162 54 1 0.417 3.500698147635635 7.206349902346078 -14.601224725843888 0 0 0
180 60 1 0.417 5.388771647354397 0.640927220903235 -18.184733347307663 0 0 0
280 94 2 -0.834 7.093913924118035 5.460699955648954 -15.585279450921892 0 0 0
281 94 1 0.417 6.52664092874689 4.666790082597375 -15.64774088420312 0 0 0
282 94 1 0.417 7.899865235747706 5.158572393753795 -16.043234910723935 0 0 0
304 102 2 -0.834 4.646140857606626 2.2213979355141062 -17.94466648940597 0 0 0
305 102 1 0.417 4.940712642310428 2.47128348306617 -17.039828240170632 0 0 0
306 102 1 0.417 3.6985462036825143 1.998080637022208 -17.8158344890179 0 0 0
310 104 2 -0.834 8.872594923198104 7.681580673207484 -17.64860256348933 0 0 0
311 104 1 0.417 8.851275562375895 7.685504623337655 -18.628803919948506 0 0 0
312 104 1 0.417 8.098050736393285 8.237843349568749 -17.418823061894685 0 0 0
316 106 2 -0.834 5.770352239006546 3.0010987470233657 -15.597218145205906 0 0 0
317 106 1 0.417 5.211156305526628 2.936684318570633 -14.791095296860442 0 0 0
318 106 1 0.417 6.505115616573887 2.3890264271532895 -15.376813686299707 0 0 0
385 129 2 -0.834 4.424821385206056 4.936001352162884 -18.52427645122356 0 0 0
386 129 1 0.417 4.7110010676683265 4.0281465076789695 -18.298814951728055 0 0 0
397 133 2 -0.834 1.9458753898818508 1.6683419376060595 -18.060597526118972 0 0 0
398 133 1 0.417 1.1821384420133236 1.558341488534863 -17.45105015202124 0 0 0
472 158 2 -0.834 7.9036717625486315 1.3864705496661125 -14.942634797153948 0 0 0
473 158 1 0.417 8.670555471262828 1.9628548457757855 -14.739382216835292 0 0 0
474 158 1 0.417 7.667582940712144 1.02189966729057 -14.061284878286992 0 0 0
538 180 2 -0.834 5.751010436553375 6.7896281282345825 -12.469667718589427 0 0 0
539 180 1 0.417 6.272607882605315 7.237625187159797 -13.162597506474755 0 0 0
540 180 1 0.417 6.47559367784147 6.415766073215334 -11.92640380419379 0 0 0
616 206 2 -0.834 0.4207114717064197 7.7540958820444885 -17.28725933783966 0 0 0
617 206 1 0.417 1.3638110812867397 7.795741280510041 -17.54678446926777 0 0 0
618 206 1 0.417 0.13704060297691165 6.977026621961633 -17.81336366642444 0 0 0
619 207 2 -0.834 7.564703948218869 7.836567364307207 -14.396805258452433 0 0 0
620 207 1 0.417 7.37520809081972 6.975684295090222 -14.847795452282718 0 0 0
621 207 1 0.417 7.3681272747587885 8.458373061191661 -15.131352524199057 0 0 0
649 217 2 -0.834 8.156262858584391 8.732470590374795 -11.794616221252015 0 0 0
650 217 1 0.417 7.989333118476657 8.610766383634592 -12.746412580202641 0 0 0
651 217 1 0.417 8.16688534983354 7.807118458775149 -11.481625548796863 0 0 0
670 224 2 -0.834 7.024239870326814 9.507404102311629 -16.552463796119156 0 0 0
671 224 1 0.417 6.098182382922814 9.74808998786447 -16.33490078962823 0 0 0
704 235 1 0.417 4.478654605766656 7.703391748980109 -11.519956022488167 0 0 0
708 236 1 0.417 4.003592886367606 9.626184440179701 -15.475811212942826 0 0 0
1097 366 1 0.417 1.935544864419053 3.259531995276091 -18.763075627753786 0 0 1
36 12 1 0.417 -3.904015337023035 -6.160258383972928 -10.873919760649256 0 0 0
7 3 2 -0.834 -7.183658277122843 -0.5410325156213783 -7.077665725085356 0 0 0
8 3 1 0.417 -7.217603379698094 -1.3414602821897843 -6.517756105853718 0 0 0
9 3 1 0.417 -6.324505656066058 -0.6566612725645196 -7.531339676934993 0 0 0
19 7 2 -0.834 -8.42085716454607 -0.7855056519584317 -10.209600346802551 0 0 0
20 7 1 0.417 -7.98262494777774 -1.6090206075516444 -9.915478665357483 0 0 0
21 7 1 0.417 -7.670317639257516 -0.15915220511015787 -10.193726877113706 0 0 0
34 12 2 -0.834 -3.4581130300116447 -5.353639240120802 -10.515734709929008 0 0 0
35 12 1 0.417 -3.7400533739919606 -4.674678883235209 -11.155552475494545 0 0 0
40 14 2 -0.834 -7.090785951168995 -3.2096175903009083 -9.663488640911932 0 0 0
41 14 1 0.417 -6.513465178574746 -3.9105222642806323 -9.31587842204078 0 0 0
42 14 1 0.417 -7.1061324351925155 -3.445347381999768 -10.616468879932173 0 0 0
43 15 2 -0.834 -3.039214752074309 -1.875411033622573 -10.116132830419478 0 0 0
44 15 1 0.417 -2.0721340214915864 -1.9768023389194682 -10.214497537983139 0 0 0
45 15 1 0.417 -3.3751714335051637 -2.3886039467811124 -10.874362882754172 0 0 0
49 17 2 -0.834 -6.083977438540442 -7.024316402099735 -6.403004865854685 0 0 0
50 17 1 0.417 -5.907579428031753 -6.484590180687496 -7.200936715698661 0 0 0
51 17 1 0.417 -6.633546094601407 -6.404747255851395 -5.8794506437769405 0 0 0
61 21 2 -0.834 -5.384083984541736 -5.30297519124585 -8.509119873246476 0 0 0
62 21 1 0.417 -5.079190095248292 -4.580018412139379 -7.913639808973117 0 0 0
63 21 1 0.417 -4.601716864222828 -5.393503967075827 -9.097479027386617 0 0 0
76 26 2 -0.834 -1.2826366686659292 -9.403763523086015 -8.828530032511205 0 0 0
78 26 1 0.417 -1.1401051189679887 -9.171502265063452 -7.886414462900123 0 0 0
109 37 2 -0.834 -4.616758253551639 -0.8075303872495314 -8.200037367297167 0 0 0
110 37 1 0.417 -4.012528476430235 -1.2202512971928716 -8.8686008918518 0 0 0
111 37 1 0.417 -3.9754339960249676 -0.23436332785414632 -7.719038196083658 0 0 0
121 41 2 -0.834 -5.78727348786631 -0.519027821436067 -3.9142303957700655 0 0 0
123 41 1 0.417 -6.7195037249682015 -0.7910704649065627 -3.816707064743428 0 0 0
169 57 2 -0.834 -5.415424880622603 -9.761972013549068 -7.241434831166503 0 0 0
170 57 1 0.417 -6.211712522037655 -9.658533037321723 -7.81059110688985 0 0 0
171 57 1 0.417 -5.370513298051914 -8.859579552026549 -6.880327934351511 0 0 0
172 58 2 -0.834 -0.7561822930204533 -8.910967808579851 -6.117834040410541 0 0 0
174 58 1 0.417 -1.463194158793807 -8.943625979650744 -5.439464807291513 0 0 0
184 62 2 -0.834 -4.918469075764409 -3.209994518792904 -6.862969155651229 0 0 0
185 62 1 0.417 -5.692528206740496 -3.0347452121023197 -6.292249806827358 0 0 0
186 62 1 0.417 -4.756583488317003 -2.3282981085378847 -7.254803824224597 0 0 0
199 67 2 -0.834 -7.35833495243993 -2.887009162053703 -5.5557422688998805 0 0 0
200 67 1 0.417 -7.747431558234926 -2.3981397430677838 -4.794121577041434 0 0 0
201 67 1 0.417 -7.297759350005671 -3.788248220299453 -5.163383413119269 0 0 0
205 69 2 -0.834 -9.777476960823442 -5.713175094872438 -10.866885774185727 0 0 0
206 69 1 0.417 -9.080342092113032 -5.875812538911805 -10.188515369357615 0 0 0
214 72 2 -0.834 -0.809948931709182 -6.011523851292618 -11.151442370921488 0 0 0
215 72 1 0.417 -1.6716766382094057 -5.832355255044749 -10.718362472974981 0 0 0
216 72 1 0.417 -0.31354299312492484 -6.483095560189017 -10.45249698658311 0 0 0
235 79 2 -0.834 -0.24665636181516032 -2.396893644934148 -10.139761054350473 0 0 0
237 79 1 0.417 -0.24383704347838414 -3.138263082382591 -9.52345250052397 0 0 0
241 81 2 -0.834 -2.634775832106319 -4.663662471596408 -6.344090604491422 0 0 0
242 81 1 0.417 -3.327219665075306 -3.994410123037554 -6.517925725640917 0 0 0
243 81 1 0.417 -1.8659652365246588 -4.097575147960107 -6.164178609970396 0 0 0
267 89 1 0.417 -9.376201191075877 -1.264459854454097 -3.6485955493921196 0 0 0
313 105 2 -0.834 -7.26210365129797 -5.387231169735931 -4.40728778164672 0 0 0
314 105 1 0.417 -8.074049987330364 -5.311596551686402 -3.8695807138899707 0 0 0
315 105 1 0.417 -6.758061070507992 -6.018735397278894 -3.8508797635506484 0 0 0
367 123 2 -0.834 -7.611648824274134 -9.144473775089086 -8.74269006869222 0 0 0
368 123 1 0.417 -7.380081806356861 -9.106323713360087 -9.6984364077982 0 0 0
369 123 1 0.417 -8.468194098259994 -9.611299854809499 -8.777352107936597 0 0 0
410 137 1 0.417 -4.5488884079406935 -1.7687820018308904 -3.840905555689243 0 0 0
411 137 1 0.417 -3.34794043802094 -2.203858039709743 -4.653002326893856 0 0 0
421 141 2 -0.834 -3.73032813278157 -6.696388586258694 -4.97558950618192 0 0 0
422 141 1 0.417 -3.258065873580437 -6.050238867038317 -5.5549303985436405 0 0 0
423 141 1 0.417 -4.548840987987424 -6.8477148831819346 -5.486809606954364 0 0 0
424 142 2 -0.834 -2.254568101461411 -1.7170114391420221 -5.914321265545752 0 0 0
425 142 1 0.417 -1.2971780798224977 -1.844838098051522 -5.951222277352286 0 0 0
426 142 1 0.417 -2.366052642508544 -0.7991622229198728 -6.240890894672849 0 0 0
436 146 2 -0.834 -2.6588666682147557 -9.028238932214498 -4.110033610238368 0 0 0
437 146 1 0.417 -3.0404240787300014 -8.169033808696101 -4.400631694505991 0 0 0
494 165 1 0.417 -9.672237110808151 -0.19403751257862828 -8.81899114205337 0 0 0
495 165 1 0.417 -8.935551527825055 -0.22417260832690125 -7.533420438776219 0 0 0
523 175 2 -0.834 -7.831022082885098 -6.395713675387757 -9.139577446198357 0 0 0
524 175 1 0.417 -7.768420064039986 -7.323943687036038 -8.845433650310813 0 0 0
525 175 1 0.417 -6.9199516130849155 -6.078724726878507 -8.999143222634927 0 0 0
526 176 2 -0.834 -9.085299260134699 -3.3709213521820156 -7.757215417069502 0 0 0
527 176 1 0.417 -8.407346051871501 -3.313705105958269 -8.457628043185645 0 0 0
528 176 1 0.417 -8.555758258246568 -3.220428336331125 -6.956703263380331 0 0 0
541 181 2 -0.834 -7.522581833060093 -9.091036584725064 -4.8018597429158065 0 0 0
542 181 1 0.417 -8.369539016627945 -8.643340990792092 -4.571076188263597 0 0 0
543 181 1 0.417 -7.2451639222535675 -8.583888844175343 -5.582564473725406 0 0 0
600 200 1 0.417 -1.8779367110569856 -9.139601237663374 -10.570799769219224 0 0 0
173 58 1 0.417 -0.20857204581816383 -9.671196497974304 -5.82931956713727 0 0 0
664 222 2 -0.834 -9.765115346018856 -7.717079197527384 -4.111872136192394 1 0 0
409 137 2 -0.834 -3.8166952764113407 -2.4271920418670145 -3.816872262463879 0 0 0
589 197 2 -0.834 7.419249529871488 -9.762834415364352 -9.661506195133006 0 0 0
340 114 2 -0.834 -0.02739246784655085 -3.678891523641777 -5.5272705789268874 0 0 0
341 114 1 0.417 0.035012729472604226 -3.5693517788122233 -4.552987866285757 0 0 0
584 195 1 0.417 0.13340616389615434 -8.50749005843404 -9.423310858319406 0 0 0
4 2 2 -0.834 1.0519050160030177 -0.1931501514436608 -8.866663939999475 0 0 0
5 2 1 0.417 1.2480837725822833 -0.7541537376991965 -8.087309924830738 0 0 0
6 2 1 0.417 0.5791229828406733 -0.8314307133449415 -9.436281462180002 0 0 0
28 10 2 -0.834 9.24337908936724 -6.473149154827873 -6.209859482359395 0 0 0
29 10 1 0.417 8.568595902973872 -5.90491616959364 -5.785355022374982 0 0 0
30 10 1 0.417 9.237692866115886 -6.095181665280803 -7.109431738788567 0 0 0
31 11 2 -0.834 2.310620791606147 -3.7599626362757013 -9.0107567079381 0 0 0
32 11 1 0.417 2.332176735465117 -4.685265515564329 -8.67499981313834 0 0 0
33 11 1 0.417 2.0822156218221064 -3.89237576709478 -9.954637265728714 0 0 0
46 16 2 -0.834 7.498073417806465 -4.828706250980874 -4.901343125967337 0 0 0
47 16 1 0.417 7.121775886916669 -4.011603726296091 -5.297646465724244 0 0 0
48 16 1 0.417 7.914942767460687 -4.4916150182788535 -4.083312342880682 0 0 0
58 20 2 -0.834 4.863362192687589 -5.6132419790138925 -9.963449112820772 0 0 0
59 20 1 0.417 5.0012332070987835 -6.495374088847926 -9.565049874752521 0 0 0