CHARMM-GUI lammps input

              1551  atoms
              1040  bonds
               552  angles
                62  dihedrals
                 4  impropers
                

                14  atom types
                12  bond types
                23  angle types
                20  dihedral types
                 3  improper types

    -10.0940      10.0940 xlo xhi
     -9.9900       9.9900 ylo yhi
    -20.7370      20.7370 zlo zhi

Masses

       1         1.008  # HA2
       2         1.008  # HB1
       3         1.008  # HC
       4         1.008  # HT
       5        12.011  # C
       6        12.011  # CC
       7        12.011  # CT1
       8        12.011  # CT2
       9        14.007  # NC2
      10        14.007  # NH3
      11        15.999  # OC
      12        15.999  # OT
      13        22.990  # SOD
      14        35.450  # CLA

PairIJ Coeffs

       1        1 0.03400000000000 2.38760856461611 0.03400000000000 2.38760856461611 # HA2 HA2
       1        2 0.02734958866235 2.36979059025330 0.02734958866235 2.36979059025330 # HA2 HB1
       1        3 0.03954743986657 1.39381104453056 0.03954743986657 1.39381104453056 # HA2 HC
       1        4 0.03954743986657 1.39381104453056 0.03954743986657 1.39381104453056 # HA2 HT
       1        5 0.06115553940568 2.97560171858873 0.06115553940568 2.97560171858873 # HA2 C
       1        6 0.04878524367060 2.97560171858873 0.04878524367060 2.97560171858873 # HA2 CC
       1        7 0.03298484500494 2.97560171858873 0.01843908891459 2.88651184677470 # HA2 CT1
       1        8 0.04363484845854 2.98451070577014 0.01843908891459 2.88651184677470 # HA2 CT2
       1        9 0.08246211251235 2.84196691086768 0.08246211251235 2.84196691086768 # HA2 NC2
       1       10 0.08246211251235 2.84196691086768 0.08246211251235 2.84196691086768 # HA2 NH3
       1       11 0.06387487769069 2.70833210314663 0.06387487769069 2.70833210314663 # HA2 OC
       1       12 0.07191244676688 2.76909139572380 0.07191244676688 2.76909139572380 # HA2 OT
       1       13 0.03993244295056 2.45063964892454 0.03993244295056 2.45063964892454 # HA2 SOD
       1       14 0.07141428428543 3.21614437248662 0.07141428428543 3.21614437248662 # HA2 CLA
       2        2 0.02200000000000 2.35197261589050 0.02200000000000 2.35197261589050 # HB1 HB1
       2        3 0.03181194744117 1.37599307016775 0.03181194744117 1.37599307016775 # HB1 HC
       2        4 0.03181194744117 1.37599307016775 0.03181194744117 1.37599307016775 # HB1 HT
       2        5 0.04919349550500 2.95778374422593 0.04919349550500 2.95778374422593 # HB1 C
       2        6 0.03924283374070 2.95778374422593 0.03924283374070 2.95778374422593 # HB1 CC
       2        7 0.02653299832284 2.95778374422593 0.01483239697419 2.86869387241189 # HB1 CT1
       2        8 0.03509985754957 2.96669273140733 0.01483239697419 2.86869387241189 # HB1 CT2
       2        9 0.06633249580711 2.82414893650488 0.06633249580711 2.82414893650488 # HB1 NC2
       2       10 0.06633249580711 2.82414893650488 0.06633249580711 2.82414893650488 # HB1 NH3
       2       11 0.05138093031466 2.69051412878382 0.05138093031466 2.69051412878382 # HB1 OC
       2       12 0.05784634819935 2.75127342136100 0.05784634819935 2.75127342136100 # HB1 OT
       2       13 0.03212164379355 2.43282167456173 0.03212164379355 2.43282167456173 # HB1 SOD
       2       14 0.05744562646538 3.19832639812382 0.05744562646538 3.19832639812382 # HB1 CLA
       3        3 0.04600000000000 0.40001352444501 0.04600000000000 0.40001352444501 # HC HC
       3        4 0.04600000000000 0.40001352444501 0.04600000000000 0.40001352444501 # HC HT
       3        5 0.07113367697511 1.98180419850318 0.07113367697511 1.98180419850318 # HC C
       3        6 0.05674504383644 1.98180419850318 0.05674504383644 1.98180419850318 # HC CC
       3        7 0.03836665218650 1.98180419850318 0.02144761058953 1.89271432668915 # HC CT1
       3        8 0.05075431016180 1.99071318568459 0.02144761058953 1.89271432668915 # HC CT2
       3        9 0.09591663046625 1.84816939078213 0.09591663046625 1.84816939078213 # HC NC2
       3       10 0.09591663046625 1.84816939078213 0.09591663046625 1.84816939078213 # HC NH3
       3       11 0.07429670248403 1.71453458306108 0.07429670248403 1.71453458306108 # HC OC
       3       12 0.08364568129916 1.77529387563825 0.08364568129916 1.77529387563825 # HC OT
       3       13 0.04644782018567 1.45684212883899 0.04644782018567 1.45684212883899 # HC SOD
       3       14 0.08306623862918 2.22234685240108 0.08306623862918 2.22234685240108 # HC CLA
       4        4 0.04600000000000 0.40001352444501 0.04600000000000 0.40001352444501 # HT HT
       4        5 0.07113367697511 1.98180419850318 0.07113367697511 1.98180419850318 # HT C
       4        6 0.05674504383644 1.98180419850318 0.05674504383644 1.98180419850318 # HT CC
       4        7 0.03836665218650 1.98180419850318 0.02144761058953 1.89271432668915 # HT CT1
       4        8 0.05075431016180 1.99071318568459 0.02144761058953 1.89271432668915 # HT CT2
       4        9 0.09591663046625 1.84816939078213 0.09591663046625 1.84816939078213 # HT NC2
       4       10 0.09591663046625 1.84816939078213 0.09591663046625 1.84816939078213 # HT NH3
       4       11 0.07429670248403 1.71453458306108 0.07429670248403 1.71453458306108 # HT OC
       4       12 0.08364568129916 1.77529387563825 0.08364568129916 1.77529387563825 # HT OT
       4       13 0.04644782018567 1.45684212883899 0.04644782018567 1.45684212883899 # HT SOD
       4       14 0.08306623862918 2.22234685240108 0.08306623862918 2.22234685240108 # HT CLA
       5        5 0.11000000000000 3.56359487256136 0.11000000000000 3.56359487256136 # C C
       5        6 0.08774964387392 3.56359487256136 0.08774964387392 3.56359487256136 # C CC
       5        7 0.05932958789677 3.56359487256136 0.03316624790355 3.47450500074732 # C CT1
       5        8 0.07848566748139 3.57250385974276 0.03316624790355 3.47450500074732 # C CT2
       5        9 0.14832396974191 3.42996006484031 0.14832396974191 3.42996006484031 # C NC2
       5       10 0.14832396974191 3.42996006484031 0.14832396974191 3.42996006484031 # C NH3
       5       11 0.11489125293076 3.29632525711926 0.11489125293076 3.29632525711926 # C OC
       5       12 0.12934836682386 3.35708454969643 0.12934836682386 3.35708454969643 # C OT
       5       13 0.07182617907142 3.03863280289716 0.07182617907142 3.03863280289716 # C SOD
       5       14 0.12845232578665 3.80413752645925 0.12845232578665 3.80413752645925 # C CLA
       6        6 0.07000000000000 3.56359487256136 0.07000000000000 3.56359487256136 # CC CC
       6        7 0.04732863826480 3.56359487256136 0.02645751311065 3.47450500074732 # CC CT1
       6        8 0.06260990336999 3.57250385974276 0.02645751311065 3.47450500074732 # CC CT2
       6        9 0.11832159566199 3.42996006484031 0.11832159566199 3.42996006484031 # CC NC2
       6       10 0.11832159566199 3.42996006484031 0.11832159566199 3.42996006484031 # CC NH3
       6       11 0.09165151389912 3.29632525711926 0.09165151389912 3.29632525711926 # CC OC
       6       12 0.10318430113152 3.35708454969643 0.10318430113152 3.35708454969643 # CC OT
       6       13 0.05729746940311 3.03863280289716 0.05729746940311 3.03863280289716 # CC SOD
       6       14 0.10246950765960 3.80413752645925 0.10246950765960 3.80413752645925 # CC CLA
       7        7 0.03200000000000 3.56359487256136 0.01000000000000 3.38541512893329 # CT1 CT1
       7        8 0.04233202097703 3.57250385974276 0.01000000000000 3.38541512893329 # CT1 CT2
       7        9 0.08000000000000 3.42996006484031 0.04472135955000 3.34087019302627 # CT1 NC2
       7       10 0.08000000000000 3.42996006484031 0.04472135955000 3.34087019302627 # CT1 NH3
       7       11 0.06196773353932 3.29632525711926 0.03464101615138 3.20723538530522 # CT1 OC
       7       12 0.06976532089799 3.35708454969643 0.03900000000000 3.26799467788239 # CT1 OT
       7       13 0.03874016004097 3.03863280289716 0.02165640782771 2.94954293108313 # CT1 SOD
       7       14 0.06928203230276 3.80413752645925 0.03872983346207 3.71504765464521 # CT1 CLA
       8        8 0.05600000000000 3.58141284692416 0.01000000000000 3.38541512893329 # CT2 CT2
       8        9 0.10583005244258 3.43886905202171 0.04472135955000 3.34087019302627 # CT2 NC2
       8       10 0.10583005244258 3.43886905202171 0.04472135955000 3.34087019302627 # CT2 NH3
       8       11 0.08197560612768 3.30523424430066 0.03464101615138 3.20723538530522 # CT2 OC
       8       12 0.09229084461635 3.36599353687783 0.03900000000000 3.26799467788239 # CT2 OT
       8       13 0.05124841460962 3.04754179007857 0.02165640782771 2.94954293108313 # CT2 SOD
       8       14 0.09165151389912 3.81304651364065 0.03872983346207 3.71504765464521 # CT2 CLA
       9        9 0.20000000000000 3.29632525711926 0.20000000000000 3.29632525711926 # NC2 NC2
       9       10 0.20000000000000 3.29632525711926 0.20000000000000 3.29632525711926 # NC2 NH3
       9       11 0.15491900000000 3.24019863787641 0.15491900000000 3.24019863787641 # NC2 OC
       9       12 0.17441330224498 3.22344974197538 0.17441330224498 3.22344974197538 # NC2 OT
       9       13 0.09685040010243 2.90499799517611 0.09685040010243 2.90499799517611 # NC2 SOD
       9       14 0.17320508075689 3.67050271873820 0.17320508075689 3.67050271873820 # NC2 CLA
      10       10 0.20000000000000 3.29632525711926 0.20000000000000 3.29632525711926 # NH3 NH3
      10       11 0.15491933384830 3.16269044939820 0.15491933384830 3.16269044939820 # NH3 OC
      10       12 0.17441330224498 3.22344974197538 0.17441330224498 3.22344974197538 # NH3 OT
      10       13 0.09685040010243 2.90499799517611 0.09685040010243 2.90499799517611 # NH3 SOD
      10       14 0.17320508075689 3.67050271873820 0.17320508075689 3.67050271873820 # NH3 CLA
      11       11 0.12000000000000 3.02905564167715 0.12000000000000 3.02905564167715 # OC OC
      11       12 0.13509996299037 3.08981493425432 0.13509996299037 3.08981493425432 # OC OT
      11       13 0.07502000000000 2.87760285959330 0.07502000000000 2.87760285959330 # OC SOD
      11       14 0.13416407864999 3.53686791101715 0.13416407864999 3.53686791101715 # OC CLA
      12       12 0.15210000000000 3.15057422683150 0.15210000000000 3.15057422683150 # OT OT
      12       13 0.08445999052806 2.83212248003223 0.08445999052806 2.83212248003223 # OT SOD
      12       14 0.15104635050209 3.59762720359432 0.15104635050209 3.59762720359432 # OT CLA
      13       13 0.04690000000000 2.51367073323297 0.04690000000000 2.51367073323297 # SOD SOD
      13       14 0.08390000000000 3.32394311738161 0.08390000000000 3.32394311738161 # SOD CLA
      14       14 0.15000000000000 4.04468018035714 0.15000000000000 4.04468018035714 # CLA CLA

Atoms

           1        1     10  -0.300    -2.8740000000    -0.2800000000   -19.1700000000 # PROA-1-ARG-N-NH3
           2        1      3   0.330    -3.9076868761    -0.2327329134   -19.0658018004 # PROA-1-ARG-HT1-HC
           3        1      3   0.330    -2.4320567076    -0.3164652733   -18.2292789753 # PROA-1-ARG-HT2-HC
           4        1      3   0.330    -2.6182817274    -1.1338021527   -19.7059381355 # PROA-1-ARG-HT3-HC
           5        1      7   0.210    -2.4010000000     0.9040000000   -19.8850000000 # PROA-1-ARG-CA-CT1
           6        1      2   0.100    -2.5204294238     1.7515075666   -19.2265543756 # PROA-1-ARG-HA-HB1
           7        1      8  -0.180    -0.9300000000     0.7600000000   -20.3040000000 # PROA-1-ARG-CB-CT2
           8        1      1   0.090    -0.3245463211     0.5708956709   -19.3927057939 # PROA-1-ARG-HB1-HA2
           9        1      1   0.090    -0.6024040623     1.7169041703   -20.7620469902 # PROA-1-ARG-HB2-HA2
          10        1      8  -0.180    -0.6600000000    -0.3730000000   -21.3070000000 # PROA-1-ARG-CG-CT2
          11        1      1   0.090    -1.2901105257    -0.2132607294   -22.2075703265 # PROA-1-ARG-HG1-HA2
          12        1      1   0.090    -0.9398656401    -1.3408548703   -20.8395441243 # PROA-1-ARG-HG2-HA2
          13        1      8   0.200     0.8050000000    -0.4360000000   -21.7340000000 # PROA-1-ARG-CD-CT2
          14        1      1   0.090     1.1041964663     0.5259094218   -22.2023723630 # PROA-1-ARG-HD1-HA2
          15        1      1   0.090     0.9547115417    -1.2721564249   -22.4499537828 # PROA-1-ARG-HD2-HA2
          16        1      9  -0.700     1.6660000000    -0.6640000000   -20.5980000000 # PROA-1-ARG-NE-NC2
          17        1      3   0.440     1.2490559009    -0.7534518035   -19.6938602686 # PROA-1-ARG-HE-HC
          18        1      5   0.640     3.0640000000    -0.7660000000   -20.7050000000 # PROA-1-ARG-CZ-C
          19        1      9  -0.800     3.8540000000    -0.9860000000   -19.5820000000 # PROA-1-ARG-NH1-NC2
          20        1      3   0.460     4.7799967200    -1.3490896540   -19.6854213598 # PROA-1-ARG-HH11-HC
          21        1      3   0.460     3.4961238523    -0.7811211383   -18.6709844596 # PROA-1-ARG-HH12-HC
          22        1      9  -0.800     3.6730000000    -0.6460000000   -21.9500000000 # PROA-1-ARG-NH2-NC2
          23        1      3   0.460     3.1165270586    -0.4876399211   -22.7656346920 # PROA-1-ARG-HH21-HC
          24        1      3   0.460     4.6672393879    -0.7181006806   -22.0293065656 # PROA-1-ARG-HH22-HC
          25        1      6   0.340    -3.3120000000     1.1310000000   -21.0780000000 # PROA-1-ARG-C-CC
          26        1     11  -0.670    -4.2644802237     0.3257228322   -21.2566340017 # PROA-1-ARG-OT1-OC
          27        1     11  -0.670    -3.0694588867     2.1131774730   -21.8290667213 # PROA-1-ARG-OT2-OC
          28        1     14  -1.000    -6.0010000000     7.4580000000   -14.2800000000 # HETA-1-CLA-CLA-CLA
          29        2     14  -1.000    -7.3820000000     7.0740000000    11.1280000000 # HETA-2-CLA-CLA-CLA
          30        1     13   1.000    10.1210000000    10.0290000000   -20.7660000000 # HETB-1-SOD-SOD-SOD
          31        1     12  -0.834    -7.7890000000    -1.5220000000    12.0740000000 # WATA-1-TIP3-OH2-OT
          32        1      4   0.417    -8.1454787291    -2.0241700171    12.8067892123 # WATA-1-TIP3-H1-HT
          33        1      4   0.417    -8.2167951682    -1.8894826148    11.3005792465 # WATA-1-TIP3-H2-HT
          34        2     12  -0.834     7.9830000000     0.1400000000     8.5860000000 # WATA-2-TIP3-OH2-OT
          35        2      4   0.417     7.7129705466    -0.5933739399     9.1387011839 # WATA-2-TIP3-H1-HT
          36        2      4   0.417     8.5897193889    -0.2461973983     7.9543553271 # WATA-2-TIP3-H2-HT
          37        3     12  -0.834    -2.5070000000     3.2730000000    -6.9900000000 # WATA-3-TIP3-OH2-OT
          38        3      4   0.417    -1.6223281056     2.9206988200    -6.8926790989 # WATA-3-TIP3-H1-HT
          39        3      4   0.417    -3.0718674278     2.6213095771    -6.5747215130 # WATA-3-TIP3-H2-HT
          40        4     12  -0.834    -3.1540000000     7.9620000000   -19.4740000000 # WATA-4-TIP3-OH2-OT
          41        4      4   0.417    -2.3969548367     8.1213744254   -20.0376614705 # WATA-4-TIP3-H1-HT
          42        4      4   0.417    -2.7799249842     7.6295931542   -18.6580309985 # WATA-4-TIP3-H2-HT
          43        5     12  -0.834     6.6600000000    -1.3050000000    -3.0860000000 # WATA-5-TIP3-OH2-OT
          44        5      4   0.417     7.0705482195    -0.8690481175    -2.3392550933 # WATA-5-TIP3-H1-HT
          45        5      4   0.417     6.1286912551    -1.9992639064    -2.6962045590 # WATA-5-TIP3-H2-HT
          46        6     12  -0.834    -1.1630000000     6.1690000000     7.0000000000 # WATA-6-TIP3-OH2-OT
          47        6      4   0.417    -0.7725374989     5.4439233614     7.4878880439 # WATA-6-TIP3-H1-HT
          48        6      4   0.417    -1.3591601802     5.8005647598     6.1386008489 # WATA-6-TIP3-H2-HT
          49        7     12  -0.834    -7.7440000000     2.8740000000     3.3420000000 # WATA-7-TIP3-OH2-OT
          50        7      4   0.417    -7.7984576224     2.9119734461     2.3871051237 # WATA-7-TIP3-H1-HT
          51        7      4   0.417    -6.8268520044     3.0655785977     3.5378801548 # WATA-7-TIP3-H2-HT
          52        8     12  -0.834     4.8900000000    -8.9030000000   -13.1950000000 # WATA-8-TIP3-OH2-OT
          53        8      4   0.417     4.6533310728    -8.3471418639   -12.4525436771 # WATA-8-TIP3-H1-HT
          54        8      4   0.417     4.6106070300    -9.7811262574   -12.9360295685 # WATA-8-TIP3-H2-HT
          55        9     12  -0.834     1.4730000000    -1.9700000000    17.4700000000 # WATA-9-TIP3-OH2-OT
          56        9      4   0.417     1.1651207312    -2.8762837492    17.4795896659 # WATA-9-TIP3-H1-HT
          57        9      4   0.417     2.1039974158    -1.9384988750    16.7509160130 # WATA-9-TIP3-H2-HT
          58       10     12  -0.834    -0.5370000000    -2.8200000000    14.6170000000 # WATA-10-TIP3-OH2-OT
          59       10      4   0.417    -0.4594484088    -3.3422068562    15.4154469864 # WATA-10-TIP3-H1-HT
          60       10      4   0.417    -0.2818134149    -3.4172708921    13.9138790088 # WATA-10-TIP3-H2-HT
          61       11     12  -0.834    -6.3950000000     9.0390000000     9.3830000000 # WATA-11-TIP3-OH2-OT
          62       11      4   0.417    -6.2582929065     8.5453233929    10.1915953365 # WATA-11-TIP3-H1-HT
          63       11      4   0.417    -5.9649216646     8.5156773206     8.7066880611 # WATA-11-TIP3-H2-HT
          64       12     12  -0.834    -6.9360000000     4.2010000000   -16.3550000000 # WATA-12-TIP3-OH2-OT
          65       12      4   0.417    -7.2360778802     3.3131116735   -16.1604764141 # WATA-12-TIP3-H1-HT
          66       12      4   0.417    -6.1659386451     4.3212082259   -15.7993136387 # WATA-12-TIP3-H2-HT
          67       13     12  -0.834    -5.0190000000    -5.4950000000     2.4200000000 # WATA-13-TIP3-OH2-OT
          68       13      4   0.417    -4.0687030840    -5.5819742287     2.3451461759 # WATA-13-TIP3-H1-HT
          69       13      4   0.417    -5.3658952963    -6.0289507843     1.7053028240 # WATA-13-TIP3-H2-HT
          70       14     12  -0.834    -8.3160000000     8.7580000000    -7.7190000000 # WATA-14-TIP3-OH2-OT
          71       14      4   0.417    -7.4434743667     8.3794559092    -7.6111332740 # WATA-14-TIP3-H1-HT
          72       14      4   0.417    -8.8531765544     8.3135618025    -7.0631434013 # WATA-14-TIP3-H2-HT
          73       15     12  -0.834    -8.8370000000    -7.8300000000    20.3560000000 # WATA-15-TIP3-OH2-OT
          74       15      4   0.417    -9.2951120438    -7.2746859369    20.9868656645 # WATA-15-TIP3-H1-HT
          75       15      4   0.417    -8.2802412378    -8.3940904334    20.8927061614 # WATA-15-TIP3-H2-HT
          76       16     12  -0.834     0.2720000000    -1.6480000000    -0.6620000000 # WATA-16-TIP3-OH2-OT
          77       16      4   0.417    -0.1658300128    -2.4357242298    -0.3394674317 # WATA-16-TIP3-H1-HT
          78       16      4   0.417     1.0873380111    -1.6049956270    -0.1623937635 # WATA-16-TIP3-H2-HT
          79       17     12  -0.834    -0.9760000000     2.2150000000     8.4370000000 # WATA-17-TIP3-OH2-OT
          80       17      4   0.417    -1.4354155804     1.3955620921     8.2534497901 # WATA-17-TIP3-H1-HT
          81       17      4   0.417    -0.7800667848     2.5788781986     7.5736144130 # WATA-17-TIP3-H2-HT
          82       18     12  -0.834     3.5640000000     9.4310000000   -15.2010000000 # WATA-18-TIP3-OH2-OT
          83       18      4   0.417     4.1437617456    10.1816892519   -15.3297392923 # WATA-18-TIP3-H1-HT
          84       18      4   0.417     3.9498267938     8.9528981626   -14.4669780942 # WATA-18-TIP3-H2-HT
          85       19     12  -0.834    -4.8060000000    -0.3130000000     2.5210000000 # WATA-19-TIP3-OH2-OT
          86       19      4   0.417    -4.5008039194    -1.2202161074     2.5277916744 # WATA-19-TIP3-H1-HT
          87       19      4   0.417    -5.0942838788    -0.1635127899     1.6205679819 # WATA-19-TIP3-H2-HT
          88       20     12  -0.834    -9.7100000000     7.3420000000    -5.7370000000 # WATA-20-TIP3-OH2-OT
          89       20      4   0.417   -10.0389245176     6.7848590283    -5.0315679059 # WATA-20-TIP3-H1-HT
          90       20      4   0.417    -8.7828754002     7.1152317730    -5.8094429962 # WATA-20-TIP3-H2-HT
          91       21     12  -0.834     3.5490000000    -7.6620000000     7.8950000000 # WATA-21-TIP3-OH2-OT
          92       21      4   0.417     3.8013126866    -8.2263223952     8.6258285588 # WATA-21-TIP3-H1-HT
          93       21      4   0.417     4.3592699350    -7.2191088464     7.6429248160 # WATA-21-TIP3-H2-HT
          94       22     12  -0.834    -2.4490000000    -6.0990000000     8.9870000000 # WATA-22-TIP3-OH2-OT
          95       22      4   0.417    -2.3137888101    -6.7626852946     9.6633664716 # WATA-22-TIP3-H1-HT
          96       22      4   0.417    -2.9793735090    -6.5383758231     8.3222559387 # WATA-22-TIP3-H2-HT
          97       23     12  -0.834    -2.6180000000     4.9240000000     8.2950000000 # WATA-23-TIP3-OH2-OT
          98       23      4   0.417    -1.8794742400     5.3750755445     8.7040750481 # WATA-23-TIP3-H1-HT
          99       23      4   0.417    -2.5424874889     5.1350421558     7.3644136745 # WATA-23-TIP3-H2-HT
         100       24     12  -0.834    -3.2680000000    -9.4480000000    -1.1530000000 # WATA-24-TIP3-OH2-OT
         101       24      4   0.417    -3.0791418799   -10.3581166583    -1.3815872237 # WATA-24-TIP3-H1-HT
         102       24      4   0.417    -3.2264717582    -9.4271090530    -0.1969294935 # WATA-24-TIP3-H2-HT
         103       25     12  -0.834    -4.2870000000    -7.8610000000     3.7740000000 # WATA-25-TIP3-OH2-OT
         104       25      4   0.417    -4.9952570630    -8.4072636712     3.4331191202 # WATA-25-TIP3-H1-HT
         105       25      4   0.417    -3.7673267672    -8.4533552757     4.3174029798 # WATA-25-TIP3-H2-HT
         106       26     12  -0.834    -3.4930000000    -3.6070000000    12.7640000000 # WATA-26-TIP3-OH2-OT
         107       26      4   0.417    -3.5246541651    -4.0921261190    11.9394501213 # WATA-26-TIP3-H1-HT
         108       26      4   0.417    -3.0547865679    -4.1998106025    13.3745541889 # WATA-26-TIP3-H2-HT
         109       27     12  -0.834    -2.0670000000    -6.6370000000    19.7850000000 # WATA-27-TIP3-OH2-OT
         110       27      4   0.417    -2.3153942347    -5.8946088038    19.2341938126 # WATA-27-TIP3-H1-HT
         111       27      4   0.417    -2.8132663671    -7.2342269380    19.7336352868 # WATA-27-TIP3-H2-HT
         112       28     12  -0.834     2.7960000000     6.5380000000    12.7840000000 # WATA-28-TIP3-OH2-OT
         113       28      4   0.417     3.2252121674     6.3001894247    13.6058606242 # WATA-28-TIP3-H1-HT
         114       28      4   0.417     3.5105193212     6.8202477038    12.2130094455 # WATA-28-TIP3-H2-HT
         115       29     12  -0.834    -8.4750000000    -7.6240000000   -17.1940000000 # WATA-29-TIP3-OH2-OT
         116       29      4   0.417    -8.1726036841    -8.4124718037   -17.6446667537 # WATA-29-TIP3-H1-HT
         117       29      4   0.417    -9.2274848855    -7.9154997124   -16.6791929927 # WATA-29-TIP3-H2-HT
         118       30     12  -0.834     4.1940000000     4.6620000000    -6.9620000000 # WATA-30-TIP3-OH2-OT
         119       30      4   0.417     4.3947252252     5.5947604574    -7.0388059445 # WATA-30-TIP3-H1-HT
         120       30      4   0.417     4.9670214277     4.2838900710    -6.5428310676 # WATA-30-TIP3-H2-HT
         121       31     12  -0.834    -3.7580000000     0.8740000000    18.1430000000 # WATA-31-TIP3-OH2-OT
         122       31      4   0.417    -3.3359225801     1.1649608432    18.9513466332 # WATA-31-TIP3-H1-HT
         123       31      4   0.417    -4.0709979522    -0.0088600910    18.3400334534 # WATA-31-TIP3-H2-HT
         124       32     12  -0.834    -5.5200000000     7.6700000000   -18.2610000000 # WATA-32-TIP3-OH2-OT
         125       32      4   0.417    -6.1822934263     7.0852206234   -18.6292829594 # WATA-32-TIP3-H1-HT
         126       32      4   0.417    -4.7791699028     7.6032045248   -18.8634458246 # WATA-32-TIP3-H2-HT
         127       33     12  -0.834    -0.2240000000     8.1060000000    -0.8900000000 # WATA-33-TIP3-OH2-OT
         128       33      4   0.417     0.2478150896     7.6862577290    -1.6093321814 # WATA-33-TIP3-H1-HT
         129       33      4   0.417    -0.0224802033     7.5678707129    -0.1244684971 # WATA-33-TIP3-H2-HT
         130       34     12  -0.834    -9.5630000000    -3.4240000000     8.9290000000 # WATA-34-TIP3-OH2-OT
         131       34      4   0.417    -8.8928778506    -3.7974466801     9.5014558690 # WATA-34-TIP3-H1-HT
         132       34      4   0.417    -9.0856490162    -3.1558797776     8.1438379628 # WATA-34-TIP3-H2-HT
         133       35     12  -0.834    -6.1740000000     7.6370000000    12.8760000000 # WATA-35-TIP3-OH2-OT
         134       35      4   0.417    -5.4217274059     7.6042846358    12.2850283517 # WATA-35-TIP3-H1-HT
         135       35      4   0.417    -5.9103041706     7.1090103388    13.6296068386 # WATA-35-TIP3-H2-HT
         136       36     12  -0.834    -3.3420000000     1.3970000000    12.1250000000 # WATA-36-TIP3-OH2-OT
         137       36      4   0.417    -2.5616519368     1.6753578519    11.6456195180 # WATA-36-TIP3-H1-HT
         138       36      4   0.417    -3.1137550283     1.5189606271    13.0465539476 # WATA-36-TIP3-H2-HT
         139       37     12  -0.834     2.1620000000     8.5150000000     3.2030000000 # WATA-37-TIP3-OH2-OT
         140       37      4   0.417     2.1679325620     8.6949543809     2.2628866741 # WATA-37-TIP3-H1-HT
         141       37      4   0.417     1.9692139416     7.5796076181     3.2670817251 # WATA-37-TIP3-H2-HT
         142       38     12  -0.834     4.6920000000    -4.5140000000    13.3150000000 # WATA-38-TIP3-OH2-OT
         143       38      4   0.417     4.9968154650    -5.0000992976    14.0811767715 # WATA-38-TIP3-H1-HT
         144       38      4   0.417     5.0594208500    -4.9874518649    12.5686240286 # WATA-38-TIP3-H2-HT
         145       39     12  -0.834    -8.2370000000     0.9020000000    -7.2530000000 # WATA-39-TIP3-OH2-OT
         146       39      4   0.417    -8.5735428052     0.0145426286    -7.1289427783 # WATA-39-TIP3-H1-HT
         147       39      4   0.417    -7.5939722044     1.0148510241    -6.5529916140 # WATA-39-TIP3-H2-HT
         148       40     12  -0.834    -9.4570000000     2.4020000000    17.1040000000 # WATA-40-TIP3-OH2-OT
         149       40      4   0.417    -8.7806720623     1.7247749334    17.0906369994 # WATA-40-TIP3-H1-HT
         150       40      4   0.417    -9.3534296506     2.8278431630    17.9549774517 # WATA-40-TIP3-H2-HT
         151       41     12  -0.834    -3.5800000000     9.5860000000     6.0700000000 # WATA-41-TIP3-OH2-OT
         152       41      4   0.417    -3.8267223190     9.1256786727     5.2678377889 # WATA-41-TIP3-H1-HT
         153       41      4   0.417    -3.1034506762     8.9340603428     6.5839136751 # WATA-41-TIP3-H2-HT
         154       42     12  -0.834    -9.3200000000    -1.8330000000    -9.2630000000 # WATA-42-TIP3-OH2-OT
         155       42      4   0.417    -9.3564555099    -1.5088868350    -8.3630813970 # WATA-42-TIP3-H1-HT
         156       42      4   0.417    -8.6904226279    -2.5534040798    -9.2332992532 # WATA-42-TIP3-H2-HT
         157       43     12  -0.834     4.2790000000     6.6860000000     1.9720000000 # WATA-43-TIP3-OH2-OT
         158       43      4   0.417     4.8705175642     7.4382731742     1.9925884099 # WATA-43-TIP3-H1-HT
         159       43      4   0.417     3.8458648462     6.7445214603     1.1204126485 # WATA-43-TIP3-H2-HT
         160       44     12  -0.834    -4.8610000000    -7.1690000000   -20.0880000000 # WATA-44-TIP3-OH2-OT
         161       44      4   0.417    -4.5220448852    -6.4809821314   -19.5153110071 # WATA-44-TIP3-H1-HT
         162       44      4   0.417    -5.7442133875    -7.3399602629   -19.7609854121 # WATA-44-TIP3-H2-HT
         163       45     12  -0.834    -2.8890000000     2.7900000000    20.7450000000 # WATA-45-TIP3-OH2-OT
         164       45      4   0.417    -3.3647441224     2.0049288248    21.0162242980 # WATA-45-TIP3-H1-HT
         165       45      4   0.417    -2.8414437167     2.7242851289    19.7912433247 # WATA-45-TIP3-H2-HT
         166       46     12  -0.834    -1.6990000000     2.8180000000    -9.8050000000 # WATA-46-TIP3-OH2-OT
         167       46      4   0.417    -1.0862892164     2.1065187876    -9.6189574780 # WATA-46-TIP3-H1-HT
         168       46      4   0.417    -1.5105771965     3.4776768313    -9.1375008125 # WATA-46-TIP3-H2-HT
         169       47     12  -0.834     0.7920000000     0.3210000000    -3.0320000000 # WATA-47-TIP3-OH2-OT
         170       47      4   0.417     1.4876353324     0.8560139158    -2.6497913735 # WATA-47-TIP3-H1-HT
         171       47      4   0.417     1.2458546255    -0.4404296136    -3.3932101361 # WATA-47-TIP3-H2-HT
         172       48     12  -0.834    -8.0570000000    -3.7650000000    -3.5780000000 # WATA-48-TIP3-OH2-OT
         173       48      4   0.417    -8.9353184831    -3.8665687387    -3.2112953864 # WATA-48-TIP3-H1-HT
         174       48      4   0.417    -7.6513092014    -3.0822814689    -3.0436384901 # WATA-48-TIP3-H2-HT
         175       49     12  -0.834    -1.9150000000     0.5520000000     7.2870000000 # WATA-49-TIP3-OH2-OT