ITEM: TIMESTEP
40000
ITEM: NUMBER OF ATOMS
1877
ITEM: BOX BOUNDS pp pp pp
-1.0093999999999999e+01 1.0093999999999999e+01
-9.9900000000000002e+00 9.9900000000000002e+00
-3.3608111864168748e+01 1.6481111863889097e+01
ITEM: ATOMS id type element mass x y z vx vy vz ix iy iz
1630 15 C 197 -8.32459 -1.77636e-15 -31.8453 0 0 0 0 0 0
1684 15 C 197 -0.832459 -1.44186 -31.8453 0 0 0 0 0 0
1703 15 C 197 -5.82721 -1.44186 -31.8453 0 0 0 0 0 0
1704 15 C 197 -3.32984 -2.88372 -31.8453 0 0 0 0 0 0
1705 15 C 197 -5.82721 -4.32558 -31.8453 0 0 0 0 0 0
1706 15 C 197 -3.32984 -1.77636e-15 -31.8453 0 0 0 0 0 0
1708 15 C 197 -1.66492 -1.77636e-15 -29.8328 0 0 0 0 0 0
1709 15 C 197 -4.1623 -1.44186 -29.8328 0 0 0 0 0 0
1721 15 C 197 -8.32459 -5.76745 -31.8453 0 0 0 0 0 0
1722 15 C 197 -8.32459 -2.88372 -31.8453 0 0 0 0 0 0
1723 15 C 197 -9.15705 -1.44186 -29.8328 0 0 0 0 0 0
1724 15 C 197 -6.65967 -2.88372 -29.8328 0 0 0 0 0 0
1725 15 C 197 -9.15705 -4.32558 -29.8328 0 0 0 0 0 0
1726 15 C 197 -6.65967 -1.77636e-15 -29.8328 0 0 0 0 0 0
1774 15 C 197 -0.832459 -4.32558 -31.8453 0 0 0 0 0 0
1776 15 C 197 -0.832459 -7.20931 -31.8453 0 0 0 0 0 0
1791 15 C 197 -5.82721 -7.20931 -31.8453 0 0 0 0 0 0
1792 15 C 197 -3.32984 -8.65117 -31.8453 0 0 0 0 0 0
1793 15 C 197 -3.32984 -5.76745 -31.8453 0 0 0 0 0 0
1794 15 C 197 -4.1623 -4.32558 -29.8328 0 0 0 0 0 0
1795 15 C 197 -1.66492 -5.76745 -29.8328 0 0 0 0 0 0
1796 15 C 197 -4.1623 -7.20931 -29.8328 0 0 0 0 0 0
1797 15 C 197 -1.66492 -2.88372 -29.8328 0 0 0 0 0 0
1806 15 C 197 -8.32459 -8.65117 -31.8453 0 0 0 0 0 0
1807 15 C 197 -9.15705 -7.20931 -29.8328 0 0 0 0 0 0
1808 15 C 197 -6.65967 -8.65117 -29.8328 0 0 0 0 0 0
1809 15 C 197 -6.65967 -5.76745 -29.8328 0 0 0 0 0 0
1854 15 C 197 -1.66492 -8.65117 -29.8328 0 0 0 0 0 0
1728 15 C 197 -4.99475 -1.77636e-15 -27.8202 0 0 0 0 0 0
1729 15 C 197 -7.49213 -1.44186 -27.8202 0 0 0 0 0 0
1735 15 C 197 -9.98951 -2.88372 -27.8202 0 0 0 0 0 0
1736 15 C 197 -9.98951 -1.77636e-15 -27.8202 0 0 0 0 0 0
1798 15 C 197 -2.49738 -1.44186 -27.8202 0 0 0 0 0 0
1799 15 C 197 -1.77636e-15 -2.88372 -27.8202 0 0 0 0 0 0
1800 15 C 197 -2.49738 -4.32558 -27.8202 0 0 0 0 0 0
1810 15 C 197 -7.49213 -4.32558 -27.8202 0 0 0 0 0 0
1811 15 C 197 -4.99475 -5.76745 -27.8202 0 0 0 0 0 0
1812 15 C 197 -7.49213 -7.20931 -27.8202 0 0 0 0 0 0
1813 15 C 197 -4.99475 -2.88372 -27.8202 0 0 0 0 0 0
1818 15 C 197 -9.98951 -8.65117 -27.8202 0 0 0 0 0 0
1819 15 C 197 -9.98951 -5.76745 -27.8202 0 0 0 0 0 0
1855 15 C 197 -2.49738 -7.20931 -27.8202 0 0 0 0 0 0
1856 15 C 197 -1.77636e-15 -8.65117 -27.8202 0 0 0 0 0 0
1857 15 C 197 -1.77636e-15 -5.76745 -27.8202 0 0 0 0 0 0
1862 15 C 197 -4.99475 -8.65117 -27.8202 0 0 0 0 0 0
1683 15 C 197 1.66492 -1.77636e-15 -31.8453 0 0 0 0 0 0
1748 15 C 197 9.15705 -1.44186 -31.8453 0 0 0 0 0 0
1756 15 C 197 4.1623 -1.44186 -31.8453 0 0 0 0 0 0
1757 15 C 197 6.65967 -2.88372 -31.8453 0 0 0 0 0 0
1758 15 C 197 4.1623 -4.32558 -31.8453 0 0 0 0 0 0
1759 15 C 197 6.65967 -1.77636e-15 -31.8453 0 0 0 0 0 0
1761 15 C 197 8.32459 -1.77636e-15 -29.8328 0 0 0 0 0 0
1762 15 C 197 5.82721 -1.44186 -29.8328 0 0 0 0 0 0
1775 15 C 197 1.66492 -5.76745 -31.8453 0 0 0 0 0 0
1777 15 C 197 1.66492 -2.88372 -31.8453 0 0 0 0 0 0
1778 15 C 197 0.832459 -1.44186 -29.8328 0 0 0 0 0 0
1779 15 C 197 3.32984 -2.88372 -29.8328 0 0 0 0 0 0
1780 15 C 197 0.832459 -4.32558 -29.8328 0 0 0 0 0 0
1781 15 C 197 3.32984 -1.77636e-15 -29.8328 0 0 0 0 0 0
1826 15 C 197 9.15705 -4.32558 -31.8453 0 0 0 0 0 0
1827 15 C 197 9.15705 -7.20931 -31.8453 0 0 0 0 0 0
1829 15 C 197 4.1623 -7.20931 -31.8453 0 0 0 0 0 0
1830 15 C 197 6.65967 -8.65117 -31.8453 0 0 0 0 0 0
1831 15 C 197 6.65967 -5.76745 -31.8453 0 0 0 0 0 0
1832 15 C 197 5.82721 -4.32558 -29.8328 0 0 0 0 0 0
1833 15 C 197 8.32459 -5.76745 -29.8328 0 0 0 0 0 0
1834 15 C 197 5.82721 -7.20931 -29.8328 0 0 0 0 0 0
1835 15 C 197 8.32459 -2.88372 -29.8328 0 0 0 0 0 0
1842 15 C 197 1.66492 -8.65117 -31.8453 0 0 0 0 0 0
1843 15 C 197 0.832459 -7.20931 -29.8328 0 0 0 0 0 0
1844 15 C 197 3.32984 -8.65117 -29.8328 0 0 0 0 0 0
1845 15 C 197 3.32984 -5.76745 -29.8328 0 0 0 0 0 0
1867 15 C 197 8.32459 -8.65117 -29.8328 0 0 0 0 0 0
1783 15 C 197 4.99475 -1.77636e-15 -27.8202 0 0 0 0 0 0
1784 15 C 197 2.49738 -1.44186 -27.8202 0 0 0 0 0 0
1801 15 C 197 0 -1.77636e-15 -27.8202 0 0 0 0 0 0
1836 15 C 197 7.49213 -1.44186 -27.8202 0 0 0 0 0 0
1837 15 C 197 9.98951 -2.88372 -27.8202 0 0 0 0 0 0
1838 15 C 197 7.49213 -4.32558 -27.8202 0 0 0 0 0 0
1839 15 C 197 9.98951 -1.77636e-15 -27.8202 0 0 0 0 0 0
1846 15 C 197 2.49738 -4.32558 -27.8202 0 0 0 0 0 0
1847 15 C 197 4.99475 -5.76745 -27.8202 0 0 0 0 0 0
1848 15 C 197 2.49738 -7.20931 -27.8202 0 0 0 0 0 0
1849 15 C 197 4.99475 -2.88372 -27.8202 0 0 0 0 0 0
1868 15 C 197 7.49213 -7.20931 -27.8202 0 0 0 0 0 0
1869 15 C 197 9.98951 -8.65117 -27.8202 0 0 0 0 0 0
1870 15 C 197 9.98951 -5.76745 -27.8202 0 0 0 0 0 0
1873 15 C 197 4.99475 -8.65117 -27.8202 0 0 0 0 0 0
1571 15 C 197 -3.32984 8.65117 -31.8453 0 0 0 0 0 0
1572 15 C 197 -5.82721 7.20931 -31.8453 0 0 0 0 0 0
1575 15 C 197 -8.32459 5.76745 -31.8453 0 0 0 0 0 0
1576 15 C 197 -8.32459 8.65117 -31.8453 0 0 0 0 0 0
1577 15 C 197 -6.65967 8.65117 -29.8328 0 0 0 0 0 0
1578 15 C 197 -9.15705 7.20931 -29.8328 0 0 0 0 0 0
1604 15 C 197 -0.832459 7.20931 -31.8453 0 0 0 0 0 0
1606 15 C 197 -0.832459 4.32558 -31.8453 0 0 0 0 0 0
1618 15 C 197 -5.82721 4.32558 -31.8453 0 0 0 0 0 0
1619 15 C 197 -3.32984 2.88372 -31.8453 0 0 0 0 0 0
1620 15 C 197 -5.82721 1.44186 -31.8453 0 0 0 0 0 0
1621 15 C 197 -3.32984 5.76745 -31.8453 0 0 0 0 0 0
1622 15 C 197 -4.1623 7.20931 -29.8328 0 0 0 0 0 0
1623 15 C 197 -1.66492 5.76745 -29.8328 0 0 0 0 0 0
1624 15 C 197 -4.1623 4.32558 -29.8328 0 0 0 0 0 0
1625 15 C 197 -1.66492 8.65117 -29.8328 0 0 0 0 0 0
1631 15 C 197 -8.32459 2.88372 -31.8453 0 0 0 0 0 0
1632 15 C 197 -9.15705 4.32558 -29.8328 0 0 0 0 0 0
1633 15 C 197 -6.65967 2.88372 -29.8328 0 0 0 0 0 0
1634 15 C 197 -9.15705 1.44186 -29.8328 0 0 0 0 0 0
1635 15 C 197 -6.65967 5.76745 -29.8328 0 0 0 0 0 0
1682 15 C 197 -0.832459 1.44186 -31.8453 0 0 0 0 0 0
1707 15 C 197 -4.1623 1.44186 -29.8328 0 0 0 0 0 0
1710 15 C 197 -1.66492 2.88372 -29.8328 0 0 0 0 0 0
1579 15 C 197 -9.98951 8.65117 -27.8202 0 0 0 0 0 0
1626 15 C 197 -1.77636e-15 8.65117 -27.8202 0 0 0 0 0 0
1627 15 C 197 -2.49738 7.20931 -27.8202 0 0 0 0 0 0
1636 15 C 197 -7.49213 7.20931 -27.8202 0 0 0 0 0 0
1637 15 C 197 -4.99475 5.76745 -27.8202 0 0 0 0 0 0
1638 15 C 197 -7.49213 4.32558 -27.8202 0 0 0 0 0 0
1639 15 C 197 -4.99475 8.65117 -27.8202 0 0 0 0 0 0
1642 15 C 197 -9.98951 2.88372 -27.8202 0 0 0 0 0 0
1643 15 C 197 -9.98951 5.76745 -27.8202 0 0 0 0 0 0
1711 15 C 197 -2.49738 4.32558 -27.8202 0 0 0 0 0 0
1712 15 C 197 -1.77636e-15 2.88372 -27.8202 0 0 0 0 0 0
1713 15 C 197 -2.49738 1.44186 -27.8202 0 0 0 0 0 0
1714 15 C 197 -1.77636e-15 5.76745 -27.8202 0 0 0 0 0 0
1727 15 C 197 -7.49213 1.44186 -27.8202 0 0 0 0 0 0
1730 15 C 197 -4.99475 2.88372 -27.8202 0 0 0 0 0 0
1594 15 C 197 6.65967 8.65117 -31.8453 0 0 0 0 0 0
1595 15 C 197 4.1623 7.20931 -31.8453 0 0 0 0 0 0
1605 15 C 197 1.66492 5.76745 -31.8453 0 0 0 0 0 0
1607 15 C 197 1.66492 8.65117 -31.8453 0 0 0 0 0 0
1608 15 C 197 3.32984 8.65117 -29.8328 0 0 0 0 0 0
1609 15 C 197 0.832459 7.20931 -29.8328 0 0 0 0 0 0
1654 15 C 197 9.15705 7.20931 -31.8453 0 0 0 0 0 0
1655 15 C 197 9.15705 4.32558 -31.8453 0 0 0 0 0 0
1664 15 C 197 4.1623 4.32558 -31.8453 0 0 0 0 0 0
1665 15 C 197 6.65967 2.88372 -31.8453 0 0 0 0 0 0
1666 15 C 197 4.1623 1.44186 -31.8453 0 0 0 0 0 0
1667 15 C 197 6.65967 5.76745 -31.8453 0 0 0 0 0 0
1668 15 C 197 5.82721 7.20931 -29.8328 0 0 0 0 0 0
1669 15 C 197 8.32459 5.76745 -29.8328 0 0 0 0 0 0
1670 15 C 197 5.82721 4.32558 -29.8328 0 0 0 0 0 0
1671 15 C 197 8.32459 8.65117 -29.8328 0 0 0 0 0 0
1685 15 C 197 1.66492 2.88372 -31.8453 0 0 0 0 0 0
1686 15 C 197 0.832459 4.32558 -29.8328 0 0 0 0 0 0
1687 15 C 197 3.32984 2.88372 -29.8328 0 0 0 0 0 0
1688 15 C 197 0.832459 1.44186 -29.8328 0 0 0 0 0 0
1689 15 C 197 3.32984 5.76745 -29.8328 0 0 0 0 0 0
1747 15 C 197 9.15705 1.44186 -31.8453 0 0 0 0 0 0
1760 15 C 197 5.82721 1.44186 -29.8328 0 0 0 0 0 0
1763 15 C 197 8.32459 2.88372 -29.8328 0 0 0 0 0 0
1672 15 C 197 9.98951 8.65117 -27.8202 0 0 0 0 0 0
1673 15 C 197 7.49213 7.20931 -27.8202 0 0 0 0 0 0
1690 15 C 197 2.49738 7.20931 -27.8202 0 0 0 0 0 0
1691 15 C 197 4.99475 5.76745 -27.8202 0 0 0 0 0 0
1692 15 C 197 2.49738 4.32558 -27.8202 0 0 0 0 0 0
1693 15 C 197 4.99475 8.65117 -27.8202 0 0 0 0 0 0
1764 15 C 197 7.49213 4.32558 -27.8202 0 0 0 0 0 0
1765 15 C 197 9.98951 2.88372 -27.8202 0 0 0 0 0 0
1766 15 C 197 7.49213 1.44186 -27.8202 0 0 0 0 0 0
1767 15 C 197 9.98951 5.76745 -27.8202 0 0 0 0 0 0
1782 15 C 197 2.49738 1.44186 -27.8202 0 0 0 0 0 0
1785 15 C 197 4.99475 2.88372 -27.8202 0 0 0 0 0 0
1737 15 C 197 -8.32459 -1.77636e-15 -25.8077 0 0 0 0 0 0
1804 15 C 197 -0.832459 -1.44186 -25.8077 0 0 0 0 0 0
1814 15 C 197 -5.82721 -1.44186 -25.8077 0 0 0 0 0 0
1815 15 C 197 -3.32984 -2.88372 -25.8077 0 0 0 0 0 0
1816 15 C 197 -5.82721 -4.32558 -25.8077 0 0 0 0 0 0
1817 15 C 197 -3.32984 -1.77636e-15 -25.8077 0 0 0 0 0 0
1820 15 C 197 -8.32459 -5.76745 -25.8077 0 0 0 0 0 0
1821 15 C 197 -8.32459 -2.88372 -25.8077 0 0 0 0 0 0
1858 15 C 197 -0.832459 -4.32558 -25.8077 0 0 0 0 0 0
1860 15 C 197 -0.832459 -7.20931 -25.8077 0 0 0 0 0 0
1863 15 C 197 -5.82721 -7.20931 -25.8077 0 0 0 0 0 0
1864 15 C 197 -3.32984 -8.65117 -25.8077 0 0 0 0 0 0
1865 15 C 197 -3.32984 -5.76745 -25.8077 0 0 0 0 0 0
1866 15 C 197 -8.32459 -8.65117 -25.8077 0 0 0 0 0 0
26 11 C 15.999 -1.75658 -4.6621 -22.7361 -0.00274526 -0.000367036 -0.00974078 0 0 0
27 11 C 15.999 -0.956651 -2.65866 -22.7184 -0.00208948 -0.00280026 0.0125597 0 0 0
25 6 C 12.011 -1.1276 -3.74568 -22.1466 -0.00165243 -0.00715769 0.00380253 0 0 0
6 2 C 1.008 -1.18335 -3.34446 -20.1859 0.0331433 0.0087213 0.0110896 0 0 0
115 12 C 15.999 -2.6438 -7.14962 -23.0264 -0.00591613 0.00276536 -0.000207984 0 0 0
1 10 C 14.007 -0.774324 -5.33848 -20.1556 -0.00866061 -0.00187384 0.00162756 0 0 0
387 4 C 1.008 -9.6106 -3.35213 -20.9576 -0.00212181 0.00476359 0.00248132 1 0 0
117 4 C 1.008 -3.34349 -7.00999 -22.388 -0.00195174 -0.000299677 0.00452637 0 0 0
116 4 C 1.008 -2.24972 -6.28519 -23.1434 -0.0126404 0.00512611 -0.00542812 0 0 0
5 7 C 12.011 -0.575992 -3.97827 -20.6823 -0.0023961 -0.000623744 0.00524056 0 0 0
493 12 C 15.999 -6.81621 -6.51962 -23.108 0.00858164 0.00230191 -0.000271208 0 0 0
494 4 C 1.008 -6.73681 -6.31759 -22.1753 -0.0135457 0.0124219 -0.000983075 0 0 0
385 12 C 15.999 -9.45959 -4.29734 -20.9599 -0.00655309 0.00406681 -0.00128614 1 0 0
64 12 C 15.999 -4.54155 -4.68579 -23.0153 -0.00301059 -0.00379237 -0.00107954 0 0 0
495 4 C 1.008 -6.02618 -6.14958 -23.5021 0.0285671 -0.021305 0.0179373 0 0 0
65 4 C 1.008 -3.72113 -4.78726 -22.5326 -0.0198027 -0.0205568 0.0237936 0 0 0
66 4 C 1.008 -4.29106 -4.77117 -23.9356 0.0233854 -0.00876847 0.00697645 0 0 0
601 12 C 15.999 -8.1268 -9.08125 -22.8181 -0.00278387 -0.00382334 0.00708522 1 0 0
126 4 C 1.008 -4.48485 -2.65065 -23.4521 -0.000395757 0.00484281 -0.00722853 0 0 0
3 3 C 1.008 -1.56212 -5.34265 -19.5004 -0.00663847 -0.0184649 0.0172982 0 0 0
124 12 C 15.999 -4.53304 -1.77245 -23.0743 0.00619507 0.000865884 0.00271828 0 0 0
125 4 C 1.008 -3.68004 -1.38214 -23.2648 0.00104265 0.00468714 -0.0124459 0 0 0
1128 4 C 1.008 -1.51338 -1.19325 -23.1048 -0.0189925 -0.00347836 0.018235 0 0 0
1126 12 C 15.999 -1.95319 -0.351096 -23.2214 0.000916027 0.00422765 -0.00108737 0 0 0
1127 4 C 1.008 -1.42517 0.26731 -22.7162 0.0105035 0.001674 -0.00825193 0 0 0
895 12 C 15.999 -5.74576 -3.44266 -20.9032 -0.000493971 -0.000788475 0.00115356 0 0 0
2 3 C 1.008 -0.84753 -6.08087 -20.9191 -0.00965357 -0.00013752 0.00350563 0 0 0
4 3 C 1.008 0.0572419 -5.45047 -19.5797 -0.0164678 -0.0169207 -0.00169563 0 0 0
480 4 C 1.008 -6.07697 9.22879 -25.251 -0.00433247 0.000684869 0.00773927 0 0 0
1480 12 C 15.999 -6.68338 -6.23655 -20.2607 0.00419994 0.00933226 -0.00195049 1 0 0
1482 4 C 1.008 -5.75009 -6.44383 -20.3082 -0.00323565 -0.0213579 -0.0142206 1 0 0
1481 4 C 1.008 -7.10304 -7.0682 -20.0405 -0.0228523 0.0173898 -0.0231928 1 0 0
1189 12 C 15.999 -7.69617 -3.82713 -23.2364 -0.000601258 0.000955281 0.000492927 1 0 0
1146 4 C 1.008 -0.72254 -8.11829 -22.8243 -0.0056743 0.00620009 0.0106149 0 0 0
1190 4 C 1.008 -7.08796 -4.56331 -23.3025 0.00173245 0.00206851 0.00961494 1 0 0
1145 4 C 1.008 0.534086 -8.50593 -22.0739 -0.00789951 0.00149848 0.0115787 0 0 0
603 4 C 1.008 -7.31391 -9.20143 -22.3269 0.0103226 0.00682007 -0.0122532 1 0 0
299 4 C 1.008 -4.39768 -8.10548 -20.513 -0.00433905 -0.00770453 -0.0200353 1 2 0
897 4 C 1.008 -6.25156 -4.22167 -20.6717 -0.00973895 0.00476622 -0.000448178 0 0 0
602 4 C 1.008 -8.1128 -8.16186 -23.0842 -0.00840737 -0.0104347 -0.0158571 1 0 0
1144 12 C 15.999 0.0443507 -7.74606 -22.3887 -0.00161856 0.00313496 0.00589624 0 0 0
1382 4 C 1.008 -7.58311 -1.90266 -22.6828 0.00202134 -0.0056713 -0.0390009 1 0 0
1383 4 C 1.008 -6.17736 -1.4276 -22.9831 0.00601909 0.000816442 -0.00977951 1 0 0
1381 12 C 15.999 -7.09002 -1.139 -22.9829 0.00736011 0.00505335 -0.00258957 1 0 0
896 4 C 1.008 -5.48494 -3.58728 -21.8131 -0.0095454 0.0018098 -0.00146558 0 0 0
298 12 C 15.999 -4.116 -7.19149 -20.5518 -0.00802138 -0.0057388 -0.000129467 1 2 0
1030 12 C 15.999 -9.7167 -6.86999 -21.8602 -0.0026424 0.00235217 0.000825484 0 0 0
1031 4 C 1.008 -9.10108 -7.46799 -21.4362 -0.00723885 -0.0097918 -0.00983696 0 0 0
159 4 C 1.008 -9.95528 -0.495754 -20.2252 0.0111887 3.86606e-05 -0.00247549 1 -1 0
157 12 C 15.999 9.97413 -1.40334 -20.3855 -0.00417587 0.00300554 0.00561605 0 -1 0
158 4 C 1.008 9.42785 -1.63344 -19.6336 -0.00414321 0.0173624 0.00970141 0 -1 0
1297 12 C 15.999 -3.42577 -9.81733 -22.897 -0.000982608 0.0018893 -0.00103075 0 0 0
1298 4 C 1.008 -2.83913 -9.06771 -22.9977 -0.00443763 0.00113733 -0.0268006 0 0 0
1306 12 C 15.999 -7.50126 0.240436 -20.2463 -0.00039007 -0.00310389 -0.00606475 0 0 0
1307 4 C 1.008 -6.90085 0.268064 -20.9916 -0.00707969 0.00891998 -0.0106974 0 0 0
632 4 C 1.008 -3.87765 -0.922795 -20.813 0.0399334 0.0236033 -0.00426875 0 0 0
1487 4 C 1.008 -1.43547 9.06621 -24.2455 -0.00668331 0.0124528 0.0109978 0 -1 0
684 4 C 1.008 -5.16533 9.7799 -20.3884 -0.00918837 -0.0184877 -0.0291785 1 -1 0
383 4 C 1.008 -7.78279 1.52987 -22.9962 -0.0070296 0.00865064 -0.00220338 1 -1 0
53 4 C 1.008 -10.0806 -0.573112 -23.339 -0.00913311 -0.00339624 0.000992075 1 -1 0
386 4 C 1.008 -8.98653 -4.46679 -20.1449 0.00156335 3.92128e-05 -0.00719977 1 0 0
633 4 C 1.008 -4.21508 -1.45523 -19.4359 -0.00869809 -0.013095 -0.0310112 0 0 0
631 12 C 15.999 -3.84038 -0.69635 -19.8833 0.00374935 0.000359068 0.00246681 0 0 0
1191 4 C 1.008 -8.55998 -4.21658 -23.3721 0.00181266 -0.00122527 -0.00860623 1 0 0
23 3 C 1.008 0.667041 -1.57274 -23.211 0.00563653 -0.0117649 0.0325375 0 0 0
24 3 C 1.008 0.979218 0.0626582 -23.0993 -0.0146675 0.00422975 -0.00226776 0 0 0
1032 4 C 1.008 -9.73495 -6.10093 -21.2904 0.0260958 0.00474502 -0.00178363 0 0 0
253 12 C 15.999 5.47713 -5.87905 -21.9873 0.00480086 -0.00820722 0.00563532 0 0 0
254 4 C 1.008 4.76517 -6.20451 -22.5383 -0.00264845 0.00264927 0.00908338 0 0 0
255 4 C 1.008 5.18438 -6.04837 -21.0914 0.00608948 -0.00343323 0.00656734 0 0 0
7 8 C 12.011 0.95057 -3.53399 -20.6265 -0.00672249 -0.00209475 0.00335537 0 0 0
9 1 C 1.008 1.06869 -2.55494 -20.8656 0.0205871 0.0333365 0.00786983 0 0 0
14 1 C 1.008 1.18284 -3.57709 -23.4528 0.0501838 -0.012537 -0.0184144 0 0 0
11 1 C 1.008 1.58838 -5.27308 -21.6868 -0.0144971 -1.12568e-05 0.00488546 0 0 0
10 8 C 12.011 1.91394 -4.24879 -21.5831 0.00941655 0.0001738 0.00351706 0 0 0
15 1 C 1.008 2.76423 -4.28801 -23.5114 -0.000515882 0.00268876 -0.0186912 0 0 0
13 8 C 12.011 2.20035 -3.58541 -22.9436 -0.0037858 0.000150979 -0.00073571 0 0 0
12 1 C 1.008 2.96077 -4.37401 -21.0487 0.00534519 0.00999265 -0.00660888 0 0 0
1803 15 C 197 1.66492 -1.77636e-15 -25.8077 0 0 0 0 0 0
1841 15 C 197 9.15705 -1.44186 -25.8077 0 0 0 0 0 0
1850 15 C 197 4.1623 -1.44186 -25.8077 0 0 0 0 0 0
1851 15 C 197 6.65967 -2.88372 -25.8077 0 0 0 0 0 0
1852 15 C 197 4.1623 -4.32558 -25.8077 0 0 0 0 0 0
1853 15 C 197 6.65967 -1.77636e-15 -25.8077 0 0 0 0 0 0
1859 15 C 197 1.66492 -5.76745 -25.8077 0 0 0 0 0 0
1861 15 C 197 1.66492 -2.88372 -25.8077 0 0 0 0 0 0
1871 15 C 197 9.15705 -4.32558 -25.8077 0 0 0 0 0 0
1872 15 C 197 9.15705 -7.20931 -25.8077 0 0 0 0 0 0
1874 15 C 197 4.1623 -7.20931 -25.8077 0 0 0 0 0 0
1875 15 C 197 6.65967 -8.65117 -25.8077 0 0 0 0 0 0
1876 15 C 197 6.65967 -5.76745 -25.8077 0 0 0 0 0 0
1877 15 C 197 1.66492 -8.65117 -25.8077 0 0 0 0 0 0
18 5 C 12.011 2.59178 -1.12702 -23.0124 -0.00244429 -0.003197 0.0054331 0 0 0
22 9 C 14.007 1.3444 -0.870565 -23.1834 -0.00357637 0.0110899 0.00398732 0 0 0
16 9 C 14.007 3.06645 -2.34185 -22.8449 -0.00438405 0.00161026 -0.000779484 0 0 0
17 3 C 1.008 4.06743 -2.41977 -22.903 -0.0335703 -0.000439994 0.0084669 0 0 0
19 9 C 14.007 3.46588 -0.12867 -22.978 -0.00145304 0.0106462 -8.09577e-05 0 0 0
1103 4 C 1.008 8.55459 -6.86245 -22.4897 0.00275604 0.0149006 -0.000359549 0 0 0
1104 4 C 1.008 7.10272 -6.49503 -22.7111 -0.00488475 -0.01694 -0.0031309 0 0 0
1102 12 C 15.999 7.79946 -7.06096 -23.0437 0.00933637 0.00130536 -0.00424862 0 0 0
83 4 C 1.008 6.68539 -3.32417 -22.8704 0.0021297 -0.00350662 -0.00605409 0 0 0
82 12 C 15.999 5.73472 -3.26018 -22.7789 0.00253554 0.00182207 -0.00556789 0 0 0
84 4 C 1.008 5.46435 -4.12559 -22.4719 -0.0010538 0.00629752 0.00375232 0 0 0
88 12 C 15.999 2.90477 -7.30882 -22.6769 0.00454192 0.00135888 -0.00110663 -1 1 0
89 4 C 1.008 2.84669 -7.74775 -21.8279 0.0164902 0.0157049 0.00679254 -1 1 0
90 4 C 1.008 2.02219 -7.37393 -23.0418 -0.000560597 -0.00497959 0.0125277 -1 1 0
8 1 C 1.008 1.45412 -3.71112 -19.583 0.00495569 -0.00993722 0.00309207 0 0 0
21 3 C 1.008 4.44307 -0.210146 -22.9609 -0.0202717 -0.000644384 -0.00149675 0 0 0
1276 12 C 15.999 8.62416 -3.67705 -23.1199 -0.00714411 -0.00270999 0.00272974 -1 0 0
1277 4 C 1.008 9.40744 -3.99551 -22.671 -0.0094882 0.00438677 0.0116515 -1 0 0
1278 4 C 1.008 8.5283 -4.25639 -23.8761 0.0101635 -2.3059e-05 -0.00119253 -1 0 0
303 4 C 1.008 5.96982 -8.20645 -22.9793 0.0176405 -0.0112819 -0.0144977 0 1 0
218 4 C 1.008 5.22595 -9.60824 -21.0336 -0.00789664 -0.0192369 -0.0101558 0 0 0
219 4 C 1.008 3.99241 -9.11494 -20.3074 0.00313609 0.00665041 -0.00933098 0 0 0
217 12 C 15.999 4.61974 -9.83759 -20.3289 -0.00326104 0.000806859 5.55336e-05 0 0 0
1062 4 C 1.008 9.91535 -9.60033 -19.9294 -0.00924844 0.00811835 0.0211421 0 0 0
600 4 C 1.008 3.83081 -0.961237 -20.2211 -0.00319437 -0.00916422 -0.00146575 0 0 0
162 4 C 1.008 4.89281 -3.74739 -17.7888 -0.000984728 0.00355142 -0.0054284 0 0 0
1093 12 C 15.999 2.61027 -8.03013 -19.1595 0.00716899 0.00529476 -0.00184253 0 0 0
1094 4 C 1.008 3.26502 -7.33709 -19.2445 0.00224544 0.0136527 0.0284117 0 0 0
1423 12 C 15.999 9.20957 -9.88932 -24.5642 0.00361776 0.00449194 0.00429091 0 0 0
710 4 C 1.008 9.00127 -1.09684 -21.8712 -0.0080498 0.0220646 0.0168285 0 0 0
709 12 C 15.999 8.45902 -1.05917 -22.6594 0.00617879 0.0043447 0.00654252 0 0 0
1425 4 C 1.008 8.747 9.71543 -25.3139 -0.0254511 0.0213961 0.014115 0 -1 0
711 4 C 1.008 8.40308 -1.96758 -22.956 0.0445192 0.00298268 0.00363922 0 0 0
598 12 C 15.999 4.51646 -1.62864 -20.1947 0.00319198 -0.0025886 -0.00148035 0 0 0
161 4 C 1.008 5.13421 -2.94404 -19.0496 -0.00479201 -0.0196286 -0.0203992 0 0 0
599 4 C 1.008 5.09332 -1.40907 -20.9267 -0.0102548 -0.00924477 -0.0137531 0 0 0
867 4 C 1.008 1.44936 9.75818 -20.8792 0.00749637 0.000451198 0.00230687 0 0 0
160 12 C 15.999 5.57851 -3.50043 -18.4096 -0.000145323 0.00248505 -0.00465458 0 0 0
741 4 C 1.008 7.75375 0.841998 -20.4369 0.00709659 -0.0300783 0.00368233 0 -1 0
1299 4 C 1.008 -4.23334 -9.55084 -23.3365 -0.0144301 -0.00328625 0.0207362 0 0 0
1486 12 C 15.999 -0.803101 9.78473 -24.2368 0.00406874 0.00305583 0.00281499 0 -1 0
478 12 C 15.999 -6.02008 9.80436 -24.488 -0.00479472 0.00201508 0.006437 0 0 0
888 4 C 1.008 -0.432712 2.94936 -19.7923 0.0365938 0.00030047 0.0175413 0 -1 0
444 4 C 1.008 -3.6423 7.69739 -19.6088 0.00527351 -0.00637217 -0.0158565 0 0 0
442 12 C 15.999 -3.94174 8.58605 -19.8009 0.00551312 -0.00336595 -0.00222145 0 0 0
1488 4 C 1.008 -0.871083 -9.80522 -25.1087 -0.0045698 0.00685448 0.00557433 0 0 0
919 12 C 15.999 -4.0087 1.47623 -23.2315 0.00262847 0.00670844 -0.00151718 0 -1 0
921 4 C 1.008 -3.43876 2.2141 -23.4483 0.0169872 -0.0123306 -0.028636 0 -1 0
479 4 C 1.008 -5.93055 9.20876 -23.7437 0.0236277 0.00410191 0.00442579 0 0 0
871 12 C 15.999 -3.17765 3.81489 -20.4767 0.00157705 -0.00381294 -0.00243199 0 0 0
873 4 C 1.008 -3.93788 3.8379 -21.0582 -0.00611083 0.00607394 0.00830077 0 0 0
587 4 C 1.008 -7.80564 7.39378 -23.049 0.00354946 0.0146392 -0.000487419 0 -1 0
586 12 C 15.999 -8.75501 7.37786 -23.1702 0.0044164 0.00351488 -0.00569953 0 -1 0
588 4 C 1.008 -8.95015 6.47422 -23.4185 0.0159249 0.000321909 -0.00298086 0 -1 0
1447 12 C 15.999 -6.11925 7.75994 -22.5339 0.00373939 0.00508079 -0.00100147 0 -1 0
1448 4 C 1.008 -5.44921 7.14078 -22.8237 -0.00847635 -0.0146809 0.0132287 0 -1 0
1449 4 C 1.008 -5.85908 7.99595 -21.6431 -0.00890833 -0.00378735 0.00465459 0 -1 0
682 12 C 15.999 -5.92551 -9.62342 -20.4646 0.00523849 0.00474406 0.00297207 1 0 0
502 12 C 15.999 -2.51901 7.64912 -22.9527 -0.00583296 -0.000721026 -0.00201573 0 0 0
503 4 C 1.008 -3.23312 7.01222 -22.978 -0.0170805 0.01126 0.0140025 0 0 0
504 4 C 1.008 -2.94833 8.48372 -22.7646 0.0138431 0.00433118 0.0204068 0 0 0
1331 4 C 1.008 -3.89161 5.01335 -23.2822 0.0128656 -0.00417545 0.00524494 0 -1 0
1330 12 C 15.999 -4.49122 5.68161 -22.9502 0.00233837 -0.0076579 -0.00689698 0 -1 0
1332 4 C 1.008 -5.00464 5.23155 -22.2791 0.0154817 -0.0014045 0.00711552 0 -1 0
1489 12 C 15.999 -8.93736 4.52962 -23.0363 -0.00454768 -0.000935508 0.00011294 0 -1 0
920 4 C 1.008 -3.43129 0.713054 -23.2515 -0.0196195 -0.00992976 -0.00882159 0 -1 0
1640 15 C 197 -3.32984 8.65117 -25.8077 0 0 0 0 0 0
1641 15 C 197 -5.82721 7.20931 -25.8077 0 0 0 0 0 0
1644 15 C 197 -8.32459 5.76745 -25.8077 0 0 0 0 0 0
1645 15 C 197 -8.32459 8.65117 -25.8077 0 0 0 0 0 0
1715 15 C 197 -0.832459 7.20931 -25.8077 0 0 0 0 0 0
1717 15 C 197 -0.832459 4.32558 -25.8077 0 0 0 0 0 0
1731 15 C 197 -5.82721 4.32558 -25.8077 0 0 0 0 0 0
1732 15 C 197 -3.32984 2.88372 -25.8077 0 0 0 0 0 0
1733 15 C 197 -5.82721 1.44186 -25.8077 0 0 0 0 0 0
1734 15 C 197 -3.32984 5.76745 -25.8077 0 0 0 0 0 0
1738 15 C 197 -8.32459 2.88372 -25.8077 0 0 0 0 0 0
1802 15 C 197 -0.832459 1.44186 -25.8077 0 0 0 0 0 0
1357 12 C 15.999 -2.23726 3.75856 -23.0961 -0.00281172 0.00388356 -0.00176684 0 -1 0
1358 4 C 1.008 -1.40829 4.12294 -23.4065 0.00562202 -0.00476845 0.0108085 0 -1 0
1359 4 C 1.008 -2.23911 3.93363 -22.1547 -0.0171664 0.00795238 -0.00296202 0 -1 0
382 12 C 15.999 -7.02912 2.09614 -23.1622 -0.00144256 0.00149898 -0.00115997 1 -1 0
224 4 C 1.008 -6.18064 3.63784 -20.7948 0.00925803 0.00727978 0.00961383 0 0 0
70 12 C 15.999 -7.619 4.57558 -17.7617 -0.00625597 -0.00372689 0.00465615 0 0 0
384 4 C 1.008 -6.40411 1.53531 -23.6218 -0.0246968 0.0083451 -0.0410103 1 -1 0
528 4 C 1.008 0.267667 7.45602 -19.5622 -0.0103661 0.0334744 -0.00218405 0 0 0
526 12 C 15.999 -0.144252 7.26234 -20.4047 -4.90671e-06 0.00779248 -0.000971899 0 0 0
1490 4 C 1.008 -8.1562 3.98654 -22.931 -0.00866908 -0.00976933 -0.0150938 0 -1 0
1491 4 C 1.008 -9.33312 4.55219 -22.1646 0.00425031 -0.00914932 0.00393061 0 -1 0
223 12 C 15.999 -5.67672 3.75486 -21.6005 -0.00144854 -0.0038863 0.00163311 0 0 0
225 4 C 1.008 -5.8958 2.99081 -22.1341 -0.0169079 -0.00579619 0.0109496 0 0 0
398 4 C 1.008 -9.06986 1.5949 -17.3734 -0.0020287 0.0157299 -0.00151705 0 0 0
71 4 C 1.008 -7.59029 3.65049 -18.006 -0.0356677 -0.00419249 0.00319381 0 0 0
30 13 C 22.99 -9.67638 9.34195 -22.7843 -0.00331549 -0.000686661 -0.00228315 1 0 0
996 4 C 1.008 0.304426 7.61544 -22.2619 -0.00282536 -0.028566 -0.00729633 0 0 0
120 4 C 1.008 -0.303317 1.78726 -22.1406 -0.0011766 -0.0113839 0.0066762 0 0 0
118 12 C 15.999 0.0570941 1.53993 -22.9926 -0.00236146 -0.00353925 0.00426497 0 0 0
1169 4 C 1.008 0.908517 5.05106 -23.1438 0.0039384 0.00834395 0.0153822 0 0 0
887 4 C 1.008 -0.201404 1.4784 -20.0657 0.009321 0.00184399 -0.0138631 0 -1 0
886 12 C 15.999 -0.217181 2.33447 -20.4938 -0.00766336 0.00737341 -0.00199565 0 -1 0
443 4 C 1.008 -3.15881 9.04149 -20.1106 0.00775573 0.00388535 0.0142536 0 0 0
72 4 C 1.008 -7.06646 5.01217 -18.4103 0.00115287 -0.0191447 0.000902187 0 0 0
527 4 C 1.008 -1.07102 7.46004 -20.2695 -0.00518937 -0.00911863 -0.0118975 0 0 0
1161 4 C 1.008 -3.88905 5.82076 -18.4405 0.0224144 0.00780064 0.0213245 1 0 0
719 4 C 1.008 -5.20167 1.61261 -18.4506 0.00134092 -0.0069185 -0.00236059 0 0 0
301 12 C 15.999 5.88288 -9.03666 -22.5107 -0.00679805 0.00090319 0.00239232 0 1 0
1347 4 C 1.008 3.94264 8.84672 -17.1184 -0.0072782 -0.0132595 0.00354591 0 -1 0
1424 4 C 1.008 8.85447 -9.00427 -24.4817 0.0340095 0.0157212 0.0146628 0 0 0
54 4 C 1.008 -8.60945 -0.399115 -23.0268 -0.0098945 -0.0072475 0.00661041 1 -1 0
52 12 C 15.999 -9.43055 0.0874654 -23.0995 -0.0061591 -0.00311073 -0.00800741 1 -1 0
1417 12 C 15.999 4.32042 9.86183 -24.5386 0.000145017 0.00230534 -0.00267362 0 0 0
1346 4 C 1.008 4.32524 9.15642 -18.5506 0.0247504 -0.0182575 0.0116073 0 -1 0
1418 4 C 1.008 4.90855 9.11028 -24.6128 -0.00356969 -0.00303301 0.0221771 0 0 0
1163 4 C 1.008 1.46125 9.53009 -22.7966 0.0117329 -0.0129466 0.0098118 0 -1 0
1345 12 C 15.999 3.67581 8.68963 -18.0245 0.00327787 -0.00242007 -0.00105511 0 -1 0
119 4 C 1.008 0.0188899 2.34316 -23.512 0.0201923 0.00745166 0.0198866 0 0 0
994 12 C 15.999 0.76836 7.70758 -23.0944 0.00184542 -0.00567494 -0.001784 0 0 0
1468 12 C 15.999 1.83432 5.12787 -20.0883 0.00530205 0.00139247 -0.0054074 0 -1 0
1470 4 C 1.008 1.70529 5.49781 -20.962 -0.0183936 0.013744 0.00368528 0 -1 0
1419 4 C 1.008 4.78041 -9.50964 -23.9601 -0.00346532 0.0128152 -0.011092 0 1 0
1469 4 C 1.008 2.15753 5.85985 -19.5627 0.00258346 -0.00164777 0.000277122 0 -1 0
995 4 C 1.008 0.171065 8.2109 -23.648 0.00940229 0.0186624 0.0124521 0 0 0
302 4 C 1.008 6.7756 -9.25659 -22.2443 -0.0108312 -0.0290463 -0.00903074 0 1 0
1170 4 C 1.008 0.0777455 4.94539 -21.8821 -0.00262187 -0.00992846 0.00895864 0 0 0
1168 12 C 15.999 0.18904 4.55721 -22.7503 0.00309234 0.00145518 0.00498897 0 0 0
1162 12 C 15.999 2.25286 -9.92164 -22.694 0.00499527 -0.00063842 -0.0017303 0 0 0
250 12 C 15.999 8.05094 2.55448 -23.2435 0.00111291 -0.00125135 -0.00678628 1 -1 0
1059 4 C 1.008 8.39179 6.64871 -22.6176 -0.0145438 0.0149265 0.000506434 0 -1 0
1164 4 C 1.008 2.74378 9.91463 -23.5034 0.024866 -0.0420668 0.0180545 0 -1 0
20 3 C 1.008 3.0959 0.729406 -23.2573 0.0236294 -0.0234942 0.000982229 0 0 0
28 14 C 35.45 8.47709 8.50499 -21.37 -0.00348866 -0.00104403 0.00201877 -1 0 0
1107 4 C 1.008 3.64046 6.10687 -22.3731 -0.00274925 -0.0246126 0.0148242 0 0 0
1105 12 C 15.999 3.07492 5.80136 -23.0827 0.00360008 -0.000870999 -0.000171412 0 0 0
1106 4 C 1.008 2.46968 6.52681 -23.2365 0.0118116 0.00845528 0.0115455 0 0 0
1515 4 C 1.008 6.29717 8.027 -22.3637 -0.012402 -0.0225318 0.0428368 0 0 0
1514 4 C 1.008 6.42856 6.8042 -23.2469 0.0148951 0.00533308 0.00866851 0 0 0
1513 12 C 15.999 5.78264 7.33743 -22.7834 -0.000217241 -0.00498575 -0.000711512 0 0 0
1694 15 C 197 6.65967 8.65117 -25.8077 0 0 0 0 0 0
1695 15 C 197 4.1623 7.20931 -25.8077 0 0 0 0 0 0
1716 15 C 197 1.66492 5.76745 -25.8077 0 0 0 0 0 0
1718 15 C 197 1.66492 8.65117 -25.8077 0 0 0 0 0 0
1768 15 C 197 9.15705 7.20931 -25.8077 0 0 0 0 0 0
1769 15 C 197 9.15705 4.32558 -25.8077 0 0 0 0 0 0
1786 15 C 197 4.1623 4.32558 -25.8077 0 0 0 0 0 0
1787 15 C 197 6.65967 2.88372 -25.8077 0 0 0 0 0 0
1788 15 C 197 4.1623 1.44186 -25.8077 0 0 0 0 0 0
1789 15 C 197 6.65967 5.76745 -25.8077 0 0 0 0 0 0
1805 15 C 197 1.66492 2.88372 -25.8077 0 0 0 0 0 0
1840 15 C 197 9.15705 1.44186 -25.8077 0 0 0 0 0 0
733 12 C 15.999 2.57257 2.46505 -23.2728 -0.000577783 0.00414485 0.00908442 0 0 0
734 4 C 1.008 1.99593 3.15439 -23.6024 0.00487203 0.0102977 0.0125798 0 0 0
735 4 C 1.008 3.45326 2.8323 -23.3485 0.00375855 -0.00922066 -0.00582486 0 0 0
610 12 C 15.999 5.02408 3.52955 -22.8384 0.00256568 0.00224481 -0.00160049 0 -1 0
611 4 C 1.008 4.98036 4.48442 -22.7879 -0.00492523 0.00302988 -0.0232411 0 -1 0
612 4 C 1.008 5.92069 3.3448 -23.1181 -0.00235299 0.00374866 -0.0182408 0 -1 0
1290 4 C 1.008 6.62682 1.17502 -22.5895 0.0102357 0.00381151 -0.00839644 -1 0 0
252 4 C 1.008 8.89403 2.3719 -23.6585 0.000365765 0.000468065 -0.00887909 1 -1 0
1057 12 C 15.999 8.1065 6.10029 -23.3487 0.00181783 0.00396058 0.00268321 0 -1 0
1058 4 C 1.008 8.91396 5.71529 -23.6895 0.00993375 0.00244548 0.0238135 0 -1 0
727 12 C 15.999 7.9275 3.94388 -20.2601 0.00134928 0.00443537 -0.00429112 -1 0 0
1289 4 C 1.008 6.65614 -0.160395 -23.3023 -0.00891275 0.0112059 -0.02282 -1 0 0
1288 12 C 15.999 6.06704 0.443514 -22.85 0.00523677 0.00189136 0.00792533 -1 0 0
251 4 C 1.008 8.27462 3.03631 -22.4469 0.00430072 -0.0290095 0.00879593 1 -1 0
728 4 C 1.008 7.85866 4.75818 -19.7614 0.0124524 0.00398986 -0.00224225 -1 0 0
518 4 C 1.008 4.54695 7.43176 -21.7374 -0.0145793 0.00134256 -0.0145938 0 -1 0
468 4 C 1.008 9.72747 6.45869 -20.0404 -0.0159043 0.00367082 0.00325265 -1 -1 0
472 12 C 15.999 8.49089 3.83264 -17.638 -0.00397507 -0.00889165 0.00272087 0 -1 0
473 4 C 1.008 8.68271 4.22257 -18.4913 -0.0055338 0.00918697 0.0110347 0 -1 0
729 4 C 1.008 7.06805 3.53269 -20.1678 0.00407744 0.00334855 0.0162503 -1 0 0