LAMMPS data file via write_data, version 29 Sep 2021, timestep = 40000

1877 atoms
15 atom types
1040 bonds
12 bond types
552 angles
23 angle types
62 dihedrals
20 dihedral types
4 impropers
3 improper types

-10.094 10.094 xlo xhi
-9.99 9.99 ylo yhi
-33.60811186416875 16.481111863889097 zlo zhi

Masses

1 1.008
2 1.008
3 1.008
4 1.008
5 12.011
6 12.011
7 12.011
8 12.011
9 14.007
10 14.007
11 15.999
12 15.999
13 22.99
14 35.45
15 197

PairIJ Coeffs # lj/charmmfsw/coul/long

1 1 0.034 2.38761 0.034 2.38761
1 2 0.0273496 2.36979 0.0273496 2.36979
1 3 0.0395474 1.39381 0.0395474 1.39381
1 4 0.0395474 1.39381 0.0395474 1.39381
1 5 0.0611555 2.9756 0.0611555 2.9756
1 6 0.0487852 2.9756 0.0487852 2.9756
1 7 0.0329848 2.9756 0.0184391 2.88651
1 8 0.0436348 2.98451 0.0184391 2.88651
1 9 0.0824621 2.84197 0.0824621 2.84197
1 10 0.0824621 2.84197 0.0824621 2.84197
1 11 0.0638749 2.70833 0.0638749 2.70833
1 12 0.0719124 2.76909 0.0719124 2.76909
1 13 0.0399324 2.45064 0.0399324 2.45064
1 14 0.0714143 3.21614 0.0714143 3.21614
1 15 0.424099 2.5083 0.424099 2.5083
2 2 0.022 2.35197 0.022 2.35197
2 3 0.0318119 1.37599 0.0318119 1.37599
2 4 0.0318119 1.37599 0.0318119 1.37599
2 5 0.0491935 2.95778 0.0491935 2.95778
2 6 0.0392428 2.95778 0.0392428 2.95778
2 7 0.026533 2.95778 0.0148324 2.86869
2 8 0.0350999 2.96669 0.0148324 2.86869
2 9 0.0663325 2.82415 0.0663325 2.82415
2 10 0.0663325 2.82415 0.0663325 2.82415
2 11 0.0513809 2.69051 0.0513809 2.69051
2 12 0.0578463 2.75127 0.0578463 2.75127
2 13 0.0321216 2.43282 0.0321216 2.43282
2 14 0.0574456 3.19833 0.0574456 3.19833
2 15 0.341145 2.49049 0.341145 2.49049
3 3 0.046 0.400014 0.046 0.400014
3 4 0.046 0.400014 0.046 0.400014
3 5 0.0711337 1.9818 0.0711337 1.9818
3 6 0.056745 1.9818 0.056745 1.9818
3 7 0.0383667 1.9818 0.0214476 1.89271
3 8 0.0507543 1.99071 0.0214476 1.89271
3 9 0.0959166 1.84817 0.0959166 1.84817
3 10 0.0959166 1.84817 0.0959166 1.84817
3 11 0.0742967 1.71453 0.0742967 1.71453
3 12 0.0836457 1.77529 0.0836457 1.77529
3 13 0.0464478 1.45684 0.0464478 1.45684
3 14 0.0830662 2.22235 0.0830662 2.22235
3 15 0.493295 1.51451 0.493295 1.51451
4 4 0.046 0.400014 0.046 0.400014
4 5 0.0711337 1.9818 0.0711337 1.9818
4 6 0.056745 1.9818 0.056745 1.9818
4 7 0.0383667 1.9818 0.0214476 1.89271
4 8 0.0507543 1.99071 0.0214476 1.89271
4 9 0.0959166 1.84817 0.0959166 1.84817
4 10 0.0959166 1.84817 0.0959166 1.84817
4 11 0.0742967 1.71453 0.0742967 1.71453
4 12 0.0836457 1.77529 0.0836457 1.77529
4 13 0.0464478 1.45684 0.0464478 1.45684
4 14 0.0830662 2.22235 0.0830662 2.22235
4 15 0.493295 1.51451 0.493295 1.51451
5 5 0.11 3.56359 0.11 3.56359
5 6 0.0877496 3.56359 0.0877496 3.56359
5 7 0.0593296 3.56359 0.0331662 3.47451
5 8 0.0784857 3.5725 0.0331662 3.47451
5 9 0.148324 3.42996 0.148324 3.42996
5 10 0.148324 3.42996 0.148324 3.42996
5 11 0.114891 3.29633 0.114891 3.29633
5 12 0.129348 3.35708 0.129348 3.35708
5 13 0.0718262 3.03863 0.0718262 3.03863
5 14 0.128452 3.80414 0.128452 3.80414
5 15 0.762824 3.0963 0.762824 3.0963
6 6 0.07 3.56359 0.07 3.56359
6 7 0.0473286 3.56359 0.0264575 3.47451
6 8 0.0626099 3.5725 0.0264575 3.47451
6 9 0.118322 3.42996 0.118322 3.42996
6 10 0.118322 3.42996 0.118322 3.42996
6 11 0.0916515 3.29633 0.0916515 3.29633
6 12 0.103184 3.35708 0.103184 3.35708
6 13 0.0572975 3.03863 0.0572975 3.03863
6 14 0.10247 3.80414 0.10247 3.80414
6 15 0.608523 3.0963 0.608523 3.0963
7 7 0.032 3.56359 0.01 3.38542
7 8 0.042332 3.5725 0.01 3.38542
7 9 0.08 3.42996 0.0447214 3.34087
7 10 0.08 3.42996 0.0447214 3.34087
7 11 0.0619677 3.29633 0.034641 3.20724
7 12 0.0697653 3.35708 0.039 3.26799
7 13 0.0387402 3.03863 0.0216564 2.94954
7 14 0.069282 3.80414 0.0387298 3.71505
7 15 0.411437 3.0963 0.23 3.00721
8 8 0.056 3.58141 0.01 3.38542
8 9 0.10583 3.43887 0.0447214 3.34087
8 10 0.10583 3.43887 0.0447214 3.34087
8 11 0.0819756 3.30523 0.034641 3.20724
8 12 0.0922908 3.36599 0.039 3.26799
8 13 0.0512484 3.04754 0.0216564 2.94954
8 14 0.0916515 3.81305 0.0387298 3.71505
8 15 0.544279 3.10521 0.23 3.00721
9 9 0.2 3.29633 0.2 3.29633
9 10 0.2 3.29633 0.2 3.29633
9 11 0.154919 3.2402 0.154919 3.2402
9 12 0.174413 3.22345 0.174413 3.22345
9 13 0.0968504 2.905 0.0968504 2.905
9 14 0.173205 3.6705 0.173205 3.6705
9 15 1.02859 2.96266 1.02859 2.96266
10 10 0.2 3.29633 0.2 3.29633
10 11 0.154919 3.16269 0.154919 3.16269
10 12 0.174413 3.22345 0.174413 3.22345
10 13 0.0968504 2.905 0.0968504 2.905
10 14 0.173205 3.6705 0.173205 3.6705
10 15 1.02859 2.96266 1.02859 2.96266
11 11 0.12 3.02906 0.12 3.02906
11 12 0.1351 3.08981 0.1351 3.08981
11 13 0.07502 2.8776 0.07502 2.8776
11 14 0.134164 3.53687 0.134164 3.53687
11 15 0.796743 2.82903 0.796743 2.82903
12 12 0.1521 3.15057 0.1521 3.15057
12 13 0.08446 2.83212 0.08446 2.83212
12 14 0.151046 3.59763 0.151046 3.59763
12 15 0.897 2.88979 0.897 2.88979
13 13 0.0469 2.51367 0.0469 2.51367
13 14 0.0839 3.32394 0.0839 3.32394
13 15 0.498097 2.57134 0.498097 2.57134
14 14 0.15 4.04468 0.15 4.04468
14 15 0.890786 3.33684 0.890786 3.33684
15 15 5.29 2.629 5.29 2.629

Bond Coeffs # harmonic

1 200 1.522
2 222.5 1.538
3 222.5 1.53
4 309 1.111
5 330 1.08
6 450 0.9572
7 450 1.365
8 390 1.49
9 455 1
10 200 1.48
11 403 1.04
12 525 1.26

Angle Coeffs # charmm

1 52 108 0 0
2 58.35 113.5 11.16 2.561
3 58.35 113.6 11.16 2.561
4 62.3 120 0 0
5 26.5 110.1 22.53 2.179
6 26.5 110.1 22.53 2.179
7 35.5 109 5.4 1.802
8 50 109.5 0 0
9 35 111 0 0
10 49 120 0 0
11 40.4 120 0 0
12 25 120 0 0
13 30 109.5 20 2.074
14 44 109.5 0 0
15 55 104.52 0 0
16 40 120 70 2.31
17 67.7 107.5 0 0
18 56.5 107.5 0 0
19 43.7 110 0 0
20 67.7 110 0 0
21 51.5 107.5 0 0
22 40 118 50 2.388
23 100 124 70 2.225

Dihedral Coeffs # charmmfsw

1 0.63 1 180 1
2 0.01 2 0 0
3 0.15 3 0 0
4 0.19 3 0 1
5 0.19 3 0 1
6 0.19 3 0 1
7 0 6 180 1
8 0 6 180 1
9 2.25 2 180 1
10 0.19 3 0 1
11 0.19 3 0 1
12 0 6 180 1
13 0 6 180 1
14 0.2 3 0 1
15 0.2 3 0 1
16 2.25 2 180 1
17 3.2 2 180 1
18 0.05 6 180 1
19 0.2 3 0 1
20 0.1 3 0 1

Improper Coeffs # harmonic

1 0 0
2 45 0
3 96 0

Atoms # full

1630 0 15 0 -8.324590890848631 -1.7763568394002505e-15 -31.845317768261403 0 0 0
1684 0 15 0 -0.8324590890848622 -1.44186143751749 -31.845317768261403 0 0 0
1703 0 15 0 -5.827213623594041 -1.44186143751749 -31.845317768261403 0 0 0
1704 0 15 0 -3.3298363563394533 -2.8837228750349784 -31.845317768261403 0 0 0
1705 0 15 0 -5.827213623594043 -4.325584312552467 -31.845317768261403 0 0 0
1706 0 15 0 -3.3298363563394524 -1.7763568394002505e-15 -31.845317768261403 0 0 0
1708 0 15 0 -1.664918178169728 -1.7763568394002505e-15 -29.83276550622566 0 0 0
1709 0 15 0 -4.162295445424315 -1.44186143751749 -29.83276550622566 0 0 0
1721 0 15 0 -8.324590890848631 -5.767445750069955 -31.845317768261403 0 0 0
1722 0 15 0 -8.324590890848631 -2.8837228750349784 -31.845317768261403 0 0 0
1723 0 15 0 -9.157049979933495 -1.44186143751749 -29.83276550622566 0 0 0
1724 0 15 0 -6.659672712678905 -2.8837228750349784 -29.83276550622566 0 0 0
1725 0 15 0 -9.157049979933497 -4.325584312552467 -29.83276550622566 0 0 0
1726 0 15 0 -6.659672712678903 -1.7763568394002505e-15 -29.83276550622566 0 0 0
1774 0 15 0 -0.8324590890848622 -4.325584312552467 -31.845317768261403 0 0 0
1776 0 15 0 -0.832459089084864 -7.209307187587445 -31.845317768261403 0 0 0
1791 0 15 0 -5.827213623594041 -7.209307187587443 -31.845317768261403 0 0 0
1792 0 15 0 -3.3298363563394533 -8.651168625104933 -31.845317768261403 0 0 0
1793 0 15 0 -3.3298363563394533 -5.767445750069955 -31.845317768261403 0 0 0
1794 0 15 0 -4.162295445424315 -4.325584312552467 -29.83276550622566 0 0 0
1795 0 15 0 -1.664918178169728 -5.767445750069957 -29.83276550622566 0 0 0
1796 0 15 0 -4.162295445424316 -7.209307187587445 -29.83276550622566 0 0 0
1797 0 15 0 -1.6649181781697262 -2.8837228750349784 -29.83276550622566 0 0 0
1806 0 15 0 -8.324590890848631 -8.651168625104932 -31.845317768261403 0 0 0
1807 0 15 0 -9.157049979933495 -7.209307187587443 -29.83276550622566 0 0 0
1808 0 15 0 -6.659672712678905 -8.651168625104933 -29.83276550622566 0 0 0
1809 0 15 0 -6.659672712678905 -5.767445750069955 -29.83276550622566 0 0 0
1854 0 15 0 -1.6649181781697298 -8.651168625104933 -29.83276550622566 0 0 0
1728 0 15 0 -4.994754534509179 -1.7763568394002505e-15 -27.820213244189567 0 0 0
1729 0 15 0 -7.492131801763769 -1.44186143751749 -27.820213244189567 0 0 0
1735 0 15 0 -9.989509069018359 -2.8837228750349784 -27.820213244189567 0 0 0
1736 0 15 0 -9.989509069018357 -1.7763568394002505e-15 -27.820213244189567 0 0 0
1798 0 15 0 -2.4973772672545884 -1.44186143751749 -27.820213244189567 0 0 0
1799 0 15 0 -1.7763568394002505e-15 -2.8837228750349784 -27.820213244189567 0 0 0
1800 0 15 0 -2.4973772672545884 -4.325584312552467 -27.820213244189567 0 0 0
1810 0 15 0 -7.492131801763769 -4.325584312552467 -27.820213244189567 0 0 0
1811 0 15 0 -4.994754534509179 -5.767445750069957 -27.820213244189567 0 0 0
1812 0 15 0 -7.492131801763771 -7.209307187587445 -27.820213244189567 0 0 0
1813 0 15 0 -4.994754534509177 -2.8837228750349784 -27.820213244189567 0 0 0
1818 0 15 0 -9.989509069018359 -8.651168625104933 -27.820213244189567 0 0 0
1819 0 15 0 -9.989509069018359 -5.767445750069955 -27.820213244189567 0 0 0
1855 0 15 0 -2.4973772672545893 -7.209307187587445 -27.820213244189567 0 0 0
1856 0 15 0 -1.7763568394002505e-15 -8.651168625104933 -27.820213244189567 0 0 0
1857 0 15 0 -1.7763568394002505e-15 -5.767445750069955 -27.820213244189567 0 0 0
1862 0 15 0 -4.9947545345091795 -8.651168625104933 -27.820213244189567 0 0 0
1683 0 15 0 1.6649181781697244 -1.7763568394002505e-15 -31.845317768261403 0 0 0
1748 0 15 0 9.157049979933495 -1.44186143751749 -31.845317768261403 0 0 0
1756 0 15 0 4.162295445424316 -1.44186143751749 -31.845317768261403 0 0 0
1757 0 15 0 6.659672712678907 -2.8837228750349784 -31.845317768261403 0 0 0
1758 0 15 0 4.162295445424316 -4.325584312552467 -31.845317768261403 0 0 0
1759 0 15 0 6.659672712678907 -1.7763568394002505e-15 -31.845317768261403 0 0 0
1761 0 15 0 8.324590890848635 -1.7763568394002505e-15 -29.83276550622566 0 0 0
1762 0 15 0 5.827213623594043 -1.44186143751749 -29.83276550622566 0 0 0
1775 0 15 0 1.6649181781697244 -5.767445750069957 -31.845317768261403 0 0 0
1777 0 15 0 1.6649181781697262 -2.8837228750349784 -31.845317768261403 0 0 0
1778 0 15 0 0.832459089084864 -1.44186143751749 -29.83276550622566 0 0 0
1779 0 15 0 3.3298363563394506 -2.8837228750349784 -29.83276550622566 0 0 0
1780 0 15 0 0.832459089084864 -4.325584312552467 -29.83276550622566 0 0 0
1781 0 15 0 3.3298363563394506 -1.7763568394002505e-15 -29.83276550622566 0 0 0
1826 0 15 0 9.157049979933491 -4.325584312552467 -31.845317768261403 0 0 0
1827 0 15 0 9.157049979933499 -7.209307187587444 -31.845317768261403 0 0 0
1829 0 15 0 4.162295445424315 -7.209307187587445 -31.845317768261403 0 0 0
1830 0 15 0 6.659672712678907 -8.651168625104933 -31.845317768261403 0 0 0
1831 0 15 0 6.659672712678907 -5.767445750069955 -31.845317768261403 0 0 0
1832 0 15 0 5.827213623594043 -4.325584312552467 -29.83276550622566 0 0 0
1833 0 15 0 8.324590890848635 -5.767445750069956 -29.83276550622566 0 0 0
1834 0 15 0 5.827213623594043 -7.209307187587444 -29.83276550622566 0 0 0
1835 0 15 0 8.324590890848635 -2.8837228750349784 -29.83276550622566 0 0 0
1842 0 15 0 1.6649181781697227 -8.651168625104933 -31.845317768261403 0 0 0
1843 0 15 0 0.8324590890848604 -7.209307187587445 -29.83276550622566 0 0 0
1844 0 15 0 3.3298363563394506 -8.651168625104933 -29.83276550622566 0 0 0
1845 0 15 0 3.3298363563394506 -5.767445750069955 -29.83276550622566 0 0 0
1867 0 15 0 8.324590890848635 -8.651168625104933 -29.83276550622566 0 0 0
1783 0 15 0 4.994754534509177 -1.7763568394002505e-15 -27.820213244189567 0 0 0
1784 0 15 0 2.49737726725459 -1.44186143751749 -27.820213244189567 0 0 0
1801 0 15 0 0 -1.7763568394002505e-15 -27.820213244189567 0 0 0
1836 0 15 0 7.492131801763767 -1.44186143751749 -27.820213244189567 0 0 0
1837 0 15 0 9.989509069018363 -2.8837228750349784 -27.820213244189567 0 0 0
1838 0 15 0 7.492131801763771 -4.325584312552468 -27.820213244189567 0 0 0
1839 0 15 0 9.989509069018355 -1.7763568394002505e-15 -27.820213244189567 0 0 0
1846 0 15 0 2.49737726725459 -4.325584312552467 -27.820213244189567 0 0 0
1847 0 15 0 4.994754534509179 -5.767445750069956 -27.820213244189567 0 0 0
1848 0 15 0 2.49737726725459 -7.209307187587444 -27.820213244189567 0 0 0
1849 0 15 0 4.994754534509179 -2.8837228750349784 -27.820213244189567 0 0 0
1868 0 15 0 7.492131801763771 -7.209307187587444 -27.820213244189567 0 0 0
1869 0 15 0 9.989509069018359 -8.651168625104933 -27.820213244189567 0 0 0
1870 0 15 0 9.989509069018363 -5.767445750069956 -27.820213244189567 0 0 0
1873 0 15 0 4.994754534509179 -8.651168625104933 -27.820213244189567 0 0 0
1571 0 15 0 -3.3298363563394533 8.651168625104932 -31.845317768261403 0 0 0
1572 0 15 0 -5.827213623594041 7.209307187587443 -31.845317768261403 0 0 0
1575 0 15 0 -8.324590890848631 5.767445750069955 -31.845317768261403 0 0 0
1576 0 15 0 -8.324590890848631 8.651168625104932 -31.845317768261403 0 0 0
1577 0 15 0 -6.659672712678905 8.651168625104932 -29.83276550622566 0 0 0
1578 0 15 0 -9.157049979933495 7.209307187587443 -29.83276550622566 0 0 0
1604 0 15 0 -0.832459089084864 7.209307187587443 -31.845317768261403 0 0 0
1606 0 15 0 -0.8324590890848622 4.325584312552467 -31.845317768261403 0 0 0
1618 0 15 0 -5.827213623594043 4.325584312552467 -31.845317768261403 0 0 0
1619 0 15 0 -3.3298363563394533 2.8837228750349784 -31.845317768261403 0 0 0
1620 0 15 0 -5.827213623594041 1.44186143751749 -31.845317768261403 0 0 0
1621 0 15 0 -3.3298363563394533 5.767445750069955 -31.845317768261403 0 0 0
1622 0 15 0 -4.162295445424316 7.209307187587443 -29.83276550622566 0 0 0
1623 0 15 0 -1.664918178169728 5.767445750069957 -29.83276550622566 0 0 0
1624 0 15 0 -4.162295445424315 4.325584312552467 -29.83276550622566 0 0 0
1625 0 15 0 -1.6649181781697298 8.651168625104932 -29.83276550622566 0 0 0
1631 0 15 0 -8.324590890848631 2.8837228750349784 -31.845317768261403 0 0 0
1632 0 15 0 -9.157049979933497 4.325584312552467 -29.83276550622566 0 0 0
1633 0 15 0 -6.659672712678905 2.8837228750349784 -29.83276550622566 0 0 0
1634 0 15 0 -9.157049979933495 1.44186143751749 -29.83276550622566 0 0 0
1635 0 15 0 -6.659672712678905 5.767445750069955 -29.83276550622566 0 0 0
1682 0 15 0 -0.8324590890848622 1.4418614375174883 -31.845317768261403 0 0 0
1707 0 15 0 -4.162295445424315 1.4418614375174883 -29.83276550622566 0 0 0
1710 0 15 0 -1.6649181781697262 2.8837228750349766 -29.83276550622566 0 0 0
1579 0 15 0 -9.989509069018359 8.651168625104932 -27.820213244189567 0 0 0
1626 0 15 0 -1.7763568394002505e-15 8.651168625104932 -27.820213244189567 0 0 0
1627 0 15 0 -2.4973772672545893 7.209307187587443 -27.820213244189567 0 0 0
1636 0 15 0 -7.492131801763771 7.209307187587443 -27.820213244189567 0 0 0
1637 0 15 0 -4.994754534509179 5.767445750069957 -27.820213244189567 0 0 0
1638 0 15 0 -7.492131801763769 4.325584312552467 -27.820213244189567 0 0 0
1639 0 15 0 -4.9947545345091795 8.651168625104932 -27.820213244189567 0 0 0
1642 0 15 0 -9.989509069018359 2.8837228750349784 -27.820213244189567 0 0 0
1643 0 15 0 -9.989509069018359 5.767445750069955 -27.820213244189567 0 0 0
1711 0 15 0 -2.4973772672545884 4.325584312552467 -27.820213244189567 0 0 0
1712 0 15 0 -1.7763568394002505e-15 2.8837228750349784 -27.820213244189567 0 0 0
1713 0 15 0 -2.4973772672545884 1.4418614375174883 -27.820213244189567 0 0 0
1714 0 15 0 -1.7763568394002505e-15 5.767445750069955 -27.820213244189567 0 0 0
1727 0 15 0 -7.492131801763769 1.4418614375174883 -27.820213244189567 0 0 0
1730 0 15 0 -4.994754534509177 2.8837228750349766 -27.820213244189567 0 0 0
1594 0 15 0 6.659672712678907 8.651168625104932 -31.845317768261403 0 0 0
1595 0 15 0 4.162295445424315 7.209307187587443 -31.845317768261403 0 0 0
1605 0 15 0 1.6649181781697244 5.767445750069957 -31.845317768261403 0 0 0
1607 0 15 0 1.6649181781697227 8.651168625104932 -31.845317768261403 0 0 0
1608 0 15 0 3.3298363563394506 8.651168625104932 -29.83276550622566 0 0 0
1609 0 15 0 0.8324590890848604 7.209307187587443 -29.83276550622566 0 0 0
1654 0 15 0 9.157049979933495 7.209307187587443 -31.845317768261403 0 0 0
1655 0 15 0 9.157049979933491 4.325584312552467 -31.845317768261403 0 0 0
1664 0 15 0 4.162295445424316 4.325584312552467 -31.845317768261403 0 0 0
1665 0 15 0 6.659672712678907 2.8837228750349784 -31.845317768261403 0 0 0
1666 0 15 0 4.162295445424316 1.4418614375174883 -31.845317768261403 0 0 0
1667 0 15 0 6.659672712678907 5.767445750069955 -31.845317768261403 0 0 0
1668 0 15 0 5.827213623594043 7.209307187587443 -29.83276550622566 0 0 0
1669 0 15 0 8.324590890848635 5.767445750069955 -29.83276550622566 0 0 0
1670 0 15 0 5.827213623594043 4.325584312552467 -29.83276550622566 0 0 0
1671 0 15 0 8.324590890848635 8.651168625104932 -29.83276550622566 0 0 0
1685 0 15 0 1.6649181781697262 2.8837228750349766 -31.845317768261403 0 0 0
1686 0 15 0 0.832459089084864 4.325584312552467 -29.83276550622566 0 0 0
1687 0 15 0 3.3298363563394506 2.8837228750349784 -29.83276550622566 0 0 0
1688 0 15 0 0.832459089084864 1.4418614375174883 -29.83276550622566 0 0 0
1689 0 15 0 3.3298363563394506 5.767445750069955 -29.83276550622566 0 0 0
1747 0 15 0 9.157049979933495 1.44186143751749 -31.845317768261403 0 0 0
1760 0 15 0 5.827213623594043 1.44186143751749 -29.83276550622566 0 0 0
1763 0 15 0 8.324590890848635 2.8837228750349784 -29.83276550622566 0 0 0
1672 0 15 0 9.989509069018363 8.651168625104932 -27.820213244189567 0 0 0
1673 0 15 0 7.492131801763771 7.209307187587443 -27.820213244189567 0 0 0
1690 0 15 0 2.49737726725459 7.209307187587443 -27.820213244189567 0 0 0
1691 0 15 0 4.994754534509177 5.767445750069955 -27.820213244189567 0 0 0
1692 0 15 0 2.4973772672545884 4.325584312552467 -27.820213244189567 0 0 0
1693 0 15 0 4.994754534509179 8.651168625104932 -27.820213244189567 0 0 0
1764 0 15 0 7.492131801763771 4.325584312552467 -27.820213244189567 0 0 0
1765 0 15 0 9.989509069018359 2.8837228750349784 -27.820213244189567 0 0 0
1766 0 15 0 7.492131801763767 1.4418614375174883 -27.820213244189567 0 0 0
1767 0 15 0 9.989509069018363 5.767445750069955 -27.820213244189567 0 0 0
1782 0 15 0 2.49737726725459 1.44186143751749 -27.820213244189567 0 0 0
1785 0 15 0 4.994754534509177 2.8837228750349784 -27.820213244189567 0 0 0
1737 0 15 0 -8.324590890848633 -1.7763568394002505e-15 -25.807660982153834 0 0 0
1804 0 15 0 -0.8324590890848622 -1.44186143751749 -25.807660982153834 0 0 0
1814 0 15 0 -5.827213623594043 -1.44186143751749 -25.807660982153834 0 0 0
1815 0 15 0 -3.3298363563394524 -2.8837228750349784 -25.807660982153834 0 0 0
1816 0 15 0 -5.827213623594043 -4.325584312552467 -25.807660982153834 0 0 0
1817 0 15 0 -3.3298363563394506 -1.7763568394002505e-15 -25.807660982153834 0 0 0
1820 0 15 0 -8.324590890848633 -5.767445750069957 -25.807660982153834 0 0 0
1821 0 15 0 -8.324590890848631 -2.8837228750349784 -25.807660982153834 0 0 0
1858 0 15 0 -0.8324590890848622 -4.325584312552467 -25.807660982153834 0 0 0
1860 0 15 0 -0.8324590890848622 -7.209307187587444 -25.807660982153834 0 0 0
1863 0 15 0 -5.8272136235940435 -7.209307187587445 -25.807660982153834 0 0 0
1864 0 15 0 -3.3298363563394515 -8.651168625104933 -25.807660982153834 0 0 0
1865 0 15 0 -3.3298363563394515 -5.767445750069955 -25.807660982153834 0 0 0
1866 0 15 0 -8.324590890848633 -8.651168625104933 -25.807660982153834 0 0 0
26 1 11 -0.67 -1.7565839592352273 -4.662095265115389 -22.73611044002232 0 0 0
27 1 11 -0.67 -0.9566506291492551 -2.658655831616332 -22.71839116454689 0 0 0
25 1 6 0.34 -1.127603488728509 -3.7456750941242323 -22.14662808550092 0 0 0
6 1 2 0.1 -1.1833486732701513 -3.344460557150817 -20.18586775129989 0 0 0
115 29 12 -0.834 -2.643803883245196 -7.149615261074846 -23.02636782561371 0 0 0
1 1 10 -0.3 -0.7743237763275381 -5.338480527330996 -20.15564673080365 0 0 0
387 119 4 0.417 -9.610595092850236 -3.3521310458732483 -20.957631536387 1 0 0
117 29 4 0.417 -3.3434870276849376 -7.009988973787518 -22.387983119095654 0 0 0
116 29 4 0.417 -2.249720438033604 -6.2851885330226755 -23.143447312609663 0 0 0
5 1 7 0.21 -0.5759923653506238 -3.97826604575177 -20.682314856214266 0 0 0
493 155 12 -0.834 -6.816214052136772 -6.519617888591261 -23.10799576036742 0 0 0
494 155 4 0.417 -6.736810066558303 -6.317594736058451 -22.175322565334465 0 0 0
385 119 12 -0.834 -9.45958531725753 -4.297341372862351 -20.959938792924614 1 0 0
64 12 12 -0.834 -4.54155086354866 -4.685794041404745 -23.01534957056654 0 0 0
495 155 4 0.417 -6.026179212639018 -6.149576057639135 -23.502065416463218 0 0 0
65 12 4 0.417 -3.7211299500200727 -4.787259580170156 -22.53261258788943 0 0 0
66 12 4 0.417 -4.29106155504641 -4.771168071099904 -23.93564971117718 0 0 0
601 191 12 -0.834 -8.126796201355834 -9.081245823437827 -22.818094880725543 1 0 0
126 32 4 0.417 -4.484845356173612 -2.6506505952955797 -23.452139524849166 0 0 0
3 1 3 0.33 -1.5621193655079235 -5.34264957805564 -19.500410914223007 0 0 0
124 32 12 -0.834 -4.533041355536333 -1.7724451288536667 -23.074271244658913 0 0 0
125 32 4 0.417 -3.6800357518227793 -1.382141360944189 -23.264808227820303 0 0 0
1128 366 4 0.417 -1.5133793690776418 -1.1932482285973887 -23.104828403474098 0 0 0
1126 366 12 -0.834 -1.953185717761043 -0.3510964731787549 -23.221411265713503 0 0 0
1127 366 4 0.417 -1.4251732532710584 0.267309751035393 -22.716202205155984 0 0 0
895 289 12 -0.834 -5.745756062519113 -3.4426619599172446 -20.903168214101793 0 0 0
2 1 3 0.33 -0.8475295537848968 -6.080874265439974 -20.91911318885859 0 0 0
4 1 3 0.33 0.05724186155578437 -5.450472734938939 -19.579686685878638 0 0 0
480 150 4 0.417 -6.076973893477598 9.228794520380704 -25.251041660940043 0 0 0
1480 484 12 -0.834 -6.683376231370273 -6.23654594579615 -20.260729485468364 1 0 0
1482 484 4 0.417 -5.750093980722129 -6.443830203664817 -20.308167706644635 1 0 0
1481 484 4 0.417 -7.103039820419369 -7.06820190025239 -20.04047595492798 1 0 0
1189 387 12 -0.834 -7.696167962187833 -3.8271311361049394 -23.23643658624425 1 0 0
1146 372 4 0.417 -0.7225399191559347 -8.118290022090369 -22.82425051958207 0 0 0
1190 387 4 0.417 -7.087963241903896 -4.563307560993848 -23.30252544113684 1 0 0
1145 372 4 0.417 0.5340855034430216 -8.505932408479245 -22.07390680449647 0 0 0
603 191 4 0.417 -7.313910773267569 -9.201425283354434 -22.326943327845882 1 0 0
299 90 4 0.417 -4.397681644634176 -8.105483383204716 -20.513018971822024 1 2 0
897 289 4 0.417 -6.251555396660537 -4.221674910673885 -20.671683409781252 0 0 0
602 191 4 0.417 -8.112804161300897 -8.161862394989983 -23.084224598841185 1 0 0
1144 372 12 -0.834 0.04435072570798759 -7.746064498573049 -22.388672023612294 0 0 0
1382 451 4 0.417 -7.583112190757364 -1.9026564606563454 -22.682848825868714 1 0 0
1383 451 4 0.417 -6.177363476928079 -1.4276027121390058 -22.98314895353686 1 0 0
1381 451 12 -0.834 -7.0900185411123635 -1.1389983425413934 -22.98286414339521 1 0 0
896 289 4 0.417 -5.484937721881292 -3.5872818912681703 -21.81312191820847 0 0 0
298 90 12 -0.834 -4.11600201165976 -7.191488010451286 -20.55178916283039 1 2 0
1030 334 12 -0.834 -9.716697463273492 -6.869988461035224 -21.86023759684588 0 0 0
1031 334 4 0.417 -9.101077152992898 -7.467985643064788 -21.436200239917458 0 0 0
159 43 4 0.417 -9.955277524993505 -0.4957541476554965 -20.225216207625888 1 -1 0
157 43 12 -0.834 9.9741308834115 -1.4033366908067446 -20.385466997739385 0 -1 0
158 43 4 0.417 9.427853179029492 -1.6334388807262936 -19.633563729985365 0 -1 0
1297 423 12 -0.834 -3.425770315248486 -9.81732670485731 -22.896950838988264 0 0 0
1298 423 4 0.417 -2.8391282032992944 -9.067705802064884 -22.997731514129494 0 0 0
1306 426 12 -0.834 -7.501259896680447 0.24043629921133558 -20.24626959515226 0 0 0
1307 426 4 0.417 -6.900854902618863 0.268063665767146 -20.99156600646082 0 0 0
632 201 4 0.417 -3.877649803961832 -0.9227954057711063 -20.812956135742233 0 0 0
1487 486 4 0.417 -1.4354704191498637 9.066211413716646 -24.245500123431814 0 -1 0
684 218 4 0.417 -5.165326114417693 9.779902923512234 -20.38842457253145 1 -1 0
383 118 4 0.417 -7.782794133936434 1.5298692983197668 -22.9961878000269 1 -1 0
53 8 4 0.417 -10.080595021317453 -0.5731122596130547 -23.33898003161951 1 -1 0
386 119 4 0.417 -8.986531048449827 -4.466785660202592 -20.144874020068343 1 0 0
633 201 4 0.417 -4.215076427056703 -1.455225510585688 -19.4359051540058 0 0 0
631 201 12 -0.834 -3.840377057641949 -0.6963501696291576 -19.88327064193553 0 0 0
1191 387 4 0.417 -8.559980003978966 -4.216576608340959 -23.37210974193167 1 0 0
23 1 3 0.46 0.667041478695646 -1.5727403653800387 -23.210966314772804 0 0 0
24 1 3 0.46 0.9792178493955106 0.0626582330141705 -23.099253904281692 0 0 0
1032 334 4 0.417 -9.734953195458631 -6.100926109749578 -21.290388292188435 0 0 0
253 75 12 -0.834 5.477132317862459 -5.879049150515035 -21.98725068953119 0 0 0
254 75 4 0.417 4.765169869891411 -6.204509764220747 -22.538327284610062 0 0 0
255 75 4 0.417 5.184378344599443 -6.048366544055267 -21.09139113399546 0 0 0
7 1 8 -0.18 0.9505699183565106 -3.5339923069112524 -20.626480930359982 0 0 0
9 1 1 0.09 1.0686861713121445 -2.5549361153284416 -20.86562152979761 0 0 0
14 1 1 0.09 1.1828402671939173 -3.5770949652583433 -23.45277669668817 0 0 0
11 1 1 0.09 1.5883845091396402 -5.273075059523459 -21.686818751846868 0 0 0
10 1 8 -0.18 1.9139382792184332 -4.248791194683519 -21.58311007628713 0 0 0
15 1 1 0.09 2.7642290387721484 -4.288006796094508 -23.51143503112724 0 0 0
13 1 8 0.2 2.20034567424201 -3.585408732587279 -22.943574455791325 0 0 0
12 1 1 0.09 2.9607684826416953 -4.374007194591633 -21.048748877127355 0 0 0
1803 0 15 0 1.6649181781697244 -1.7763568394002505e-15 -25.807660982153834 0 0 0
1841 0 15 0 9.157049979933491 -1.44186143751749 -25.807660982153834 0 0 0
1850 0 15 0 4.162295445424315 -1.44186143751749 -25.807660982153834 0 0 0
1851 0 15 0 6.659672712678903 -2.8837228750349784 -25.807660982153834 0 0 0
1852 0 15 0 4.162295445424316 -4.325584312552468 -25.807660982153834 0 0 0
1853 0 15 0 6.659672712678903 -1.7763568394002505e-15 -25.807660982153834 0 0 0
1859 0 15 0 1.6649181781697262 -5.767445750069956 -25.807660982153834 0 0 0
1861 0 15 0 1.6649181781697262 -2.8837228750349784 -25.807660982153834 0 0 0
1871 0 15 0 9.157049979933495 -4.325584312552467 -25.807660982153834 0 0 0
1872 0 15 0 9.157049979933495 -7.209307187587445 -25.807660982153834 0 0 0
1874 0 15 0 4.162295445424316 -7.209307187587444 -25.807660982153834 0 0 0
1875 0 15 0 6.659672712678903 -8.651168625104933 -25.807660982153834 0 0 0
1876 0 15 0 6.659672712678907 -5.767445750069956 -25.807660982153834 0 0 0
1877 0 15 0 1.6649181781697262 -8.651168625104933 -25.807660982153834 0 0 0
18 1 5 0.64 2.591782403846569 -1.127015231171308 -23.01241562008227 0 0 0
22 1 9 -0.8 1.3443956789345108 -0.8705652147383489 -23.183376374543016 0 0 0
16 1 9 -0.7 3.0664462984350145 -2.3418534091292704 -22.8449129018333 0 0 0
17 1 3 0.44 4.067429814360123 -2.4197702972010555 -22.902979197725482 0 0 0
19 1 9 -0.8 3.4658768337966475 -0.1286701492910307 -22.97803569938552 0 0 0
1103 358 4 0.417 8.554588614122723 -6.86245464465146 -22.489725561685404 0 0 0
1104 358 4 0.417 7.10272277267765 -6.495027694230371 -22.71112969418102 0 0 0
1102 358 12 -0.834 7.799464606833288 -7.060961310733309 -23.043694432414657 0 0 0
83 18 4 0.417 6.68538508519549 -3.324170627529237 -22.870397740548675 0 0 0
82 18 12 -0.834 5.734715810389982 -3.260177270126645 -22.77889967931279 0 0 0
84 18 4 0.417 5.464351468604956 -4.125591281905016 -22.471860540787326 0 0 0
88 20 12 -0.834 2.9047703189235996 -7.30881960917331 -22.67688562917899 -1 1 0
89 20 4 0.417 2.8466947818208332 -7.747745742875279 -21.827870578423436 -1 1 0
90 20 4 0.417 2.0221923188408706 -7.373930989252759 -23.041813632680547 -1 1 0
8 1 1 0.09 1.4541164591009057 -3.711117625199728 -19.58303302187412 0 0 0
21 1 3 0.46 4.443074603622902 -0.21014584608810694 -22.96090765666958 0 0 0
1276 416 12 -0.834 8.624160723507439 -3.6770458179605754 -23.119854379575376 -1 0 0
1277 416 4 0.417 9.407442008863514 -3.995511391063685 -22.67101722196995 -1 0 0
1278 416 4 0.417 8.528302699485204 -4.25639421879553 -23.87609332309978 -1 0 0
303 91 4 0.417 5.969816700423619 -8.206450689174712 -22.979313334176478 0 1 0
218 63 4 0.417 5.225951945783049 -9.608239553405998 -21.03360959293023 0 0 0
219 63 4 0.417 3.992407171647045 -9.114938415363135 -20.307399083809123 0 0 0
217 63 12 -0.834 4.619737998627212 -9.837589560908716 -20.32893742950517 0 0 0
1062 344 4 0.417 9.915345787994172 -9.600334973877112 -19.929371891219315 0 0 0
600 190 4 0.417 3.8308059955949005 -0.961237249467251 -20.221100523241088 0 0 0
162 44 4 0.417 4.8928071698375 -3.7473909660057565 -17.78876788545776 0 0 0
1093 355 12 -0.834 2.6102701693069754 -8.030132858273669 -19.159494333355514 0 0 0
1094 355 4 0.417 3.265024918608793 -7.337089670714654 -19.2445163410522 0 0 0
1423 465 12 -0.834 9.209569953365966 -9.889320081070926 -24.564237136267277 0 0 0
710 227 4 0.417 9.001272974712235 -1.0968411463496963 -21.871173779808434 0 0 0
709 227 12 -0.834 8.459023435844935 -1.0591730097538914 -22.659408686159676 0 0 0
1425 465 4 0.417 8.74699954942807 9.715429299455367 -25.31387075867427 0 -1 0
711 227 4 0.417 8.403076278609825 -1.9675783620765017 -22.956017967068032 0 0 0
598 190 12 -0.834 4.516455025111902 -1.6286374964476202 -20.194741819137615 0 0 0
161 44 4 0.417 5.134211087502186 -2.9440363134179934 -19.049566620731785 0 0 0