1877
Atoms. Timestep: 40000
N -0.774324 -5.33848 -20.1556
H -0.84753 -6.08087 -20.9191
H -1.56212 -5.34265 -19.5004
H 0.0572419 -5.45047 -19.5797
C -0.575992 -3.97827 -20.6823
H -1.18335 -3.34446 -20.1859
C 0.95057 -3.53399 -20.6265
H 1.45412 -3.71112 -19.583
H 1.06869 -2.55494 -20.8656
C 1.91394 -4.24879 -21.5831
H 1.58838 -5.27308 -21.6868
H 2.96077 -4.37401 -21.0487
C 2.20035 -3.58541 -22.9436
H 1.18284 -3.57709 -23.4528
H 2.76423 -4.28801 -23.5114
N 3.06645 -2.34185 -22.8449
H 4.06743 -2.41977 -22.903
C 2.59178 -1.12702 -23.0124
N 3.46588 -0.12867 -22.978
H 3.0959 0.729406 -23.2573
H 4.44307 -0.210146 -22.9609
N 1.3444 -0.870565 -23.1834
H 0.667041 -1.57274 -23.211
H 0.979218 0.0626582 -23.0993
C -1.1276 -3.74568 -22.1466
O -1.75658 -4.6621 -22.7361
O -0.956651 -2.65866 -22.7184
Cl 8.47709 8.50499 -21.37
Cl -2.68633 -8.56374 -0.0634618
Na -9.67638 9.34195 -22.7843
O 7.78132 -7.86515 4.54391
H 7.11565 -7.24051 4.83203
H 7.97319 -8.3875 5.32308
O -2.52179 -2.13274 -3.55841
H -2.25132 -1.64834 -2.77804
H -1.80416 -2.0077 -4.17966
O 8.24308 4.93814 -11.9259
H 7.79163 5.42044 -11.2329
H 8.02089 5.40815 -12.73
O -1.90733 6.3538 -8.76893
H -1.75572 6.13028 -7.85021
H -2.83247 6.59645 -8.80732
O 0.0143785 0.204616 -11.4347
H 0.64631 -0.265362 -10.8904
H -0.0274196 1.08078 -11.0513
O 3.94423 4.52958 11.3391
H 4.1972 5.44594 11.2271
H 3.1564 4.56262 11.882
O 5.92194 9.54985 7.02057
H 5.64853 9.18199 6.17987
H 5.17137 9.41213 7.59868
O -9.43055 0.0874654 -23.0995
H -10.0806 -0.573112 -23.339
H -8.60945 -0.399115 -23.0268
O 1.99497 0.46243 -0.491171
H 1.69644 -0.226102 -1.0856
H 2.84067 0.151023 -0.168444
O 10.0582 4.87418 11.5933
H 9.88065 3.97577 11.3147
H 9.25401 5.15315 12.0313
O -6.91287 -8.28083 6.5366
H -6.17066 -8.2649 5.93209
H -7.13871 -7.35938 6.66371
O -4.54155 -4.68579 -23.0153
H -3.72113 -4.78726 -22.5326
H -4.29106 -4.77117 -23.9356
O -7.01193 0.547157 -8.51843
H -6.8504 -0.267258 -8.04191
H -7.5023 0.277739 -9.29541
O -7.619 4.57558 -17.7617
H -7.59029 3.65049 -18.006
H -7.06646 5.01217 -18.4103
O -9.26159 9.92732 13.0037
H -9.2282 -9.44581 13.7435
H -9.91098 -9.67368 12.4111
O 4.1248 -5.20957 -10.5367
H 3.50253 -5.32208 -11.2556
H 3.96975 -4.3189 -10.222
O 8.98323 5.44795 -0.141121
H 9.59965 6.12631 0.134817
H 9.2006 4.69073 0.402809
O 5.73472 -3.26018 -22.7789
H 6.68539 -3.32417 -22.8704
H 5.46435 -4.12559 -22.4719
O 5.23634 7.89339 -0.748084
H 5.48361 7.00089 -0.99012
H 4.45669 7.78704 -0.202795
O 2.90477 -7.30882 -22.6769
H 2.84669 -7.74775 -21.8279
H 2.02219 -7.37393 -23.0418
O -6.08695 -1.69823 -18.9453
H -6.42392 -1.00438 -19.5123
H -5.95165 -2.4426 -19.5319
O -2.42117 4.30835 11.7521
H -3.37152 4.19981 11.7161
H -2.28275 5.24913 11.6425
O 6.94152 1.34658 11.5926
H 7.33895 0.516738 11.3286
H 6.0088 1.14938 11.6786
O 8.03391 4.69949 -4.49389
H 8.30864 4.18847 -3.73223
H 8.84862 5.04855 -4.85548
O 4.11168 7.25728 -8.09002
H 4.69428 7.81702 -7.57645
H 4.39167 6.36565 -7.88296
O -5.03149 6.50883 11.4686
H -5.52617 5.78461 11.8522
H -5.63932 7.24816 11.4818
O -0.267226 -6.52412 -0.461856
H -0.625198 -6.46649 -1.34811
H -0.726104 -7.26466 -0.0651164
O 0.798858 1.36802 3.72541
H 0.622617 0.494413 4.07484
H 0.130165 1.49694 3.05246
O -2.6438 -7.14962 -23.0264
H -2.24972 -6.28519 -23.1434
H -3.34349 -7.00999 -22.388
O 0.0570941 1.53993 -22.9926
H 0.0188899 2.34316 -23.512
H -0.303317 1.78726 -22.1406
O -1.12181 -1.32248 10.9007
H -1.33689 -1.05073 10.008
H -0.470298 -0.685954 11.1951
O -4.53304 -1.77245 -23.0743
H -3.68004 -1.38214 -23.2648
H -4.48485 -2.65065 -23.4521
O 5.9021 5.3015 -1.58763
H 5.14563 4.81496 -1.25999
H 6.64028 4.70299 -1.47311
O -7.9698 5.37651 -2.88067
H -7.16113 4.95001 -2.59703
H -7.89857 6.27125 -2.54796
O 5.501 -1.58422 3.29121
H 5.73831 -2.40439 2.85831
H 6.31458 -1.08041 3.31336
O 1.43338 -4.45175 -1.42634
H 0.923774 -3.84344 -1.96182
H 1.57792 -5.20832 -1.99487
O 8.93244 3.29218 -8.05223
H 8.83099 4.20465 -7.78131
H 8.04613 2.93217 -8.01945
O 8.1251 -7.41309 -12.3328
H 7.2121 -7.13913 -12.2455
H 8.37699 -7.13189 -13.2128
O 2.38128 -0.289031 -19.086
H 3.08378 -0.588333 -18.5085
H 2.31564 0.650797 -18.9167
O 1.76841 -5.25377 11.3921
H 2.12559 -4.37123 11.2932
H 1.20963 -5.20105 12.1679
O 9.49813 -1.03679 -2.61829
H 8.86667 -1.16018 -1.90926
H -9.87463 -1.40773 -2.28049
O -8.36421 7.74247 -13.9461
H -8.81323 7.72878 -13.1005
H -8.6637 6.94897 -14.39
O 9.97413 -1.40334 -20.3855
H 9.42785 -1.63344 -19.6336
H -9.95528 -0.495754 -20.2252
O 5.57851 -3.50043 -18.4096
H 5.13421 -2.94404 -19.0496
H 4.89281 -3.74739 -17.7888
O -1.09211 3.87743 3.18324
H -0.176439 3.59922 3.16349
H -1.59163 3.06192 3.1425
O -8.84533 9.44257 -16.4303
H -9.43943 8.83151 -16.8662
H -8.4776 8.94175 -15.7018
O -6.14133 -7.53406 -8.82644
H -5.23785 -7.2359 -8.72134
H -6.42097 -7.76892 -7.94125
O 5.13333 3.43328 -3.69491
H 5.57867 3.52589 -2.85231
H 5.84178 3.37984 -4.33666
O -3.3404 -9.15699 -2.95039
H -3.18843 -8.37652 -2.41723
H -4.05206 -9.61682 -2.50487
O -5.14489 4.4659 -0.532497
H -4.41651 4.5362 -1.14982
H -5.71197 3.79149 -0.906585
O 5.55788 -7.15972 8.06226
H 6.29537 -6.88689 7.5162
H 5.94166 -7.75968 8.70207
O 6.32326 -6.53477 -8.73796
H 6.33921 -5.58194 -8.64801
H 5.44811 -6.72956 -9.07339
O -5.11836 -5.94336 9.52012
H -4.23538 -5.90544 9.88788
H -5.61765 -6.46516 10.1486
O 8.39204 -6.18204 8.47946
H 8.05435 -6.3736 9.35478
H 8.44633 -7.03619 8.05067
O 0.486893 -6.34794 -8.86889
H 1.33341 -5.96851 -8.63282
H 0.483494 -7.2076 -8.44773
O 3.10234 -4.52421 -13.3612
H 3.98238 -4.16074 -13.4595
H 2.53342 -3.75819 -13.2852
O 9.26223 -8.77299 -8.44639
H 9.41346 -7.82853 -8.40956
H 8.48685 -8.87051 -8.99936
O 1.34394 2.9555 11.4757
H 1.3228 3.9005 11.3248
H 0.42319 2.69434 11.4914
O -0.641049 -9.90965 -17.4243
H -1.09637 9.45133 -16.8533
H -0.334499 9.53869 -18.1592
O 4.56436 1.9787 -15.5815
H 3.84581 1.36308 -15.4368
H 4.17886 2.83979 -15.4197
O -6.06322 9.11238 -7.9777
H -6.87598 9.49897 -7.65165
H -5.80673 9.67403 -8.70944
O 2.22821 -6.90155 -2.47132
H 2.14748 -7.0395 -3.41549
H 2.02207 -7.75309 -2.08563
O 4.61974 -9.83759 -20.3289
H 5.22595 -9.60824 -21.0336
H 3.99241 -9.11494 -20.3074
O 0.504474 -7.78749 2.97675
H 0.210641 -6.91251 3.23045
H -0.0336849 -8.38218 3.49944
O -5.67672 3.75486 -21.6005
H -6.18064 3.63784 -20.7948
H -5.8958 2.99081 -22.1341
O 9.69564 -4.11023 11.512
H 8.8835 -4.22997 11.0195
H 9.59543 -3.25831 11.9369
O -10.0729 5.66883 -10.1959
H 9.44625 5.60337 -9.51404
H 9.63132 5.57595 -11.017
O -7.30053 4.97325 11.6397
H -8.14905 5.01872 11.1989
H -7.28109 4.10106 12.0338
O 3.94759 4.71359 -17.7318
H 4.35733 4.70392 -16.8664
H 4.58926 5.14441 -18.2968
O -7.03621 -0.735724 -16.367
H -7.88678 -1.06054 -16.0715
H -7.00124 -0.964676 -17.2962
O 8.36449 9.96254 -6.14619
H 8.74181 -9.60759 -6.9249
H 8.96926 -9.79217 -5.43895
O 0.960462 -5.69547 -18.0263
H 1.06126 -4.92783 -17.4632
H 1.39313 -6.4025 -17.5474
O 0.473836 -9.85851 12.8877
H 0.293302 -9.7315 13.8195
H 0.874127 -9.03576 12.6063
O 8.05094 2.55448 -23.2435
H 8.27462 3.03631 -22.4469
H 8.89403 2.3719 -23.6585
O 5.47713 -5.87905 -21.9873
H 4.76517 -6.20451 -22.5383
H 5.18438 -6.04837 -21.0914
O -4.5859 -4.23508 4.68266
H -5.5247 -4.06042 4.74898
H -4.39863 -4.8218 5.41574
O -3.58238 9.74178 2.68023
H -4.47867 9.83885 2.3584
H -3.03737 -9.86101 1.98934
O 0.0758976 4.38043 -9.0126
H -0.495956 3.6466 -9.23789
H -0.523485 5.08532 -8.76734
O 4.48948 7.62726 11.2267
H 5.11515 8.34972 11.1735
H 3.63788 8.0538 11.3219
O -8.27546 5.14128 -7.44186
H -8.80339 5.83694 -7.83391
H -8.54428 5.12448 -6.52294
O -6.02604 -0.459844 -2.18397
H -5.28006 -0.615677 -1.60453
H -5.64263 -0.0695048 -2.96973
O -1.97521 7.58233 -17.0464
H -2.07082 6.76519 -17.5359
H -2.02388 7.31893 -16.1271
O 2.7292 2.24852 -19.0988
H 2.92445 3.04332 -18.6022
H 2.46092 2.56431 -19.962
O 0.897327 -2.93292 7.12918
H 0.679342 -2.64465 6.24244
H 1.13342 -3.85526 7.03027
O 5.22434 3.88714 9.0125
H 4.85156 4.23916 9.82116
H 4.57546 3.25436 8.7045
O -2.62272 -0.719431 -12.3623
H -3.11048 0.0941139 -12.4907
H -1.85718 -0.461801 -11.8485
O 9.17389 -1.28877 -5.89109
H 9.36604 -0.372698 -6.09147
H 8.23399 -1.30288 -5.71035
O -3.96716 -5.15116 7.13733
H -4.33022 -5.2603 8.01664
H -3.4455 -4.35038 7.19093
O -5.21159 -2.77793 -15.2434
H -4.44343 -2.96378 -15.7837
H -5.54748 -1.94781 -15.5816
O -4.116 -7.19149 -20.5518
H -4.39768 -8.10548 -20.513
H -3.25584 -7.18745 -20.1317
O 5.88288 -9.03666 -22.5107
H 6.7756 -9.25659 -22.2443
H 5.96982 -8.20645 -22.9793
O -0.380858 0.922414 -7.81669
H -0.481853 0.0806248 -7.37217
H -0.176331 1.54094 -7.11508
O -9.67261 -0.38496 -16.6548
H 10.0507 0.241553 -17.2098
H -9.89993 -1.2412 -17.0174
O 6.60155 -0.850498 -16.1319
H 7.056 -0.816428 -15.2898
H 6.813 -0.0171584 -16.5529
O 7.38739 -6.01368 11.2021
H 6.65266 -6.62719 11.2051
H 7.19013 -5.39958 11.9097
O -2.52528 -1.06632 6.01979
H -3.32614 -1.46225 6.36358
H -2.15374 -0.59207 6.76393
O 1.08701 0.600365 6.38484
H 1.09266 1.31168 5.74408
H 1.58142 -0.103955 5.96547
O -5.44156 1.45242 -16.759
H -5.98666 0.674355 -16.8762
H -6.05929 2.14525 -16.5252
O -1.71573 7.38819 7.60729
H -1.40309 6.55689 7.25016
H -2.37142 7.68824 6.97751
O 9.24543 2.48472 8.7091
H 9.44134 3.39809 8.50021
H 9.52355 1.99641 7.93388
O -3.32682 -2.52497 -8.40989
H -2.6764 -3.15363 -8.72305
H -4.14778 -2.80868 -8.81227
O 3.30861 -3.63366 0.959017
H 2.44872 -3.9255 0.656126
H 3.44778 -4.1073 1.77945
O -2.45446 -7.12277 -11.6452
H -2.84774 -7.98099 -11.487
H -2.61474 -6.95272 -12.5739
O -0.365717 4.53389 -18.3272
H 0.423092 4.58162 -18.8675
H -0.286565 5.27059 -17.7209
O -8.39919 -7.62455 -17.3639
H -8.12728 -6.71862 -17.217
H -7.64118 -8.14786 -17.1034
O 0.974509 5.19812 -4.6104
H 0.443888 4.8049 -3.91725
H 1.50947 5.85236 -4.16073
O -4.34988 9.21973 -16.8451
H -4.17489 8.48475 -16.2571
H -3.96251 8.95689 -17.6804
O -9.97232 2.98705 -11.1228
H -9.41408 3.06722 -10.349
H 9.76681 3.83031 -11.1832
O 1.80365 2.99486 -13.1979
H 2.32897 3.20072 -12.4243
H 0.897332 3.07637 -12.9008
O 2.0317 7.22433 -13.4063
H 1.12936 6.90826 -13.3602
H 2.42742 6.94136 -12.5815
O 8.4948 0.844613 -11.2252
H 8.69212 0.805264 -10.289
H 8.55219 1.77478 -11.4438
O -5.57325 5.08372 2.01981
H -5.17207 4.94982 1.16074
H -4.83262 5.19171 2.61677
O 1.25151 -1.24902 -9.0109
H 0.837148 -2.10216 -8.88165
H 1.09675 -0.780406 -8.19036
O 0.765211 -7.07847 -5.14781
H 0.270955 -7.45898 -4.42143
H 1.21733 -7.82218 -5.54635
O 4.198 4.8762 -14.7071
H 3.32901 4.61793 -14.3997
H 4.77059 4.73617 -13.9526
O 9.9816 -9.23622 9.13038
H 10.0153 -8.71322 9.93173
H 10.0041 9.83662 9.43509
O 2.70007 -1.39974 4.98994
H 3.51708 -1.63011 4.54741
H 2.01517 -1.61781 4.35753
O -7.02912 2.09614 -23.1622
H -7.78279 1.52987 -22.9962
H -6.40411 1.53531 -23.6218
O -9.45959 -4.29734 -20.9599
H -8.98653 -4.46679 -20.1449
H -9.6106 -3.35213 -20.9576
O 4.59133 -5.5526 -1.91736
H 3.64862 -5.63412 -2.06197
H 4.94867 -6.40076 -2.18048
O -3.65288 -9.19052 7.82089
H -4.40118 -8.72414 8.19356
H -2.97773 -8.51949 7.72029
O 6.06599 -3.39428 -8.59992
H 6.62158 -2.84032 -9.14851
H 5.38467 -2.80507 -8.27596
O -8.45279 1.96338 -18.0058
H -9.06986 1.5949 -17.3734
H -8.69975 1.56689 -18.8417
O -9.27576 -6.86467 5.18118
H -9.77445 -7.63183 5.46237
H -9.10001 -6.38329 5.99
O -5.0413 7.66219 4.89643
H -4.70853 8.52863 4.66226
H -5.02427 7.64903 5.85381
O 9.47993 9.26062 4.42747
H 10.0866 9.62215 5.07392
H 9.91583 8.47229 4.10365
O 1.68063 8.36694 11.3911
H 1.32561 8.87872 12.1182
H 1.11087 8.57463 10.6502
O 4.86372 -6.87752 11.5157
H 3.94979 -7.15168 11.4395
H 4.84249 -5.93055 11.3777
O 7.85177 -8.57814 6.99938
H 8.50973 -9.24971 6.81957
H 7.05679 -9.07 7.20512
O 5.68418 -9.82535 3.88641
H 4.8436 -9.53909 3.52889
H 6.22283 -9.03415 3.896
O -8.86528 7.79976 11.1459
H -8.82662 8.40722 11.885
H -8.25742 7.09835 11.38
O -0.798495 -9.90784 -5.46469
H -1.48547 9.60624 -5.94157
H -1.22304 -9.61309 -4.65866
O 3.46859 4.37038 -6.13666
H 4.13396 4.89969 -5.69675
H 2.63754 4.68684 -5.78232
O 5.39572 2.56485 -10.2058
H 5.59151 2.86235 -11.0946
H 4.50062 2.86326 -10.0445
O -3.37105 -3.95335 -1.80354
H -2.47631 -4.17328 -1.544
H -3.26871 -3.25417 -2.44949
O -0.411461 8.71546 -8.42025
H -1.0492 8.00196 -8.39931
H 0.220831 8.49229 -7.73684
O -8.00114 -2.0789 -2.5766
H -7.57414 -2.92997 -2.47867
H -7.29873 -1.44166 -2.44698
O -3.94174 8.58605 -19.8009
H -3.15881 9.04149 -20.1106
H -3.6423 7.69739 -19.6088
O -4.74249 -1.32209 0.593023
H -4.00136 -1.90704 0.750557
H -5.51425 -1.85793 0.776092
O -6.2645 9.33768 -13.0174
H -6.63952 8.76448 -12.3485
H -6.95447 9.42228 -13.6757
O 5.64213 -0.110147 -11.256
H 6.59448 -0.181131 -11.3211
H 5.49512 0.68505 -10.7437
O 4.08683 -0.0415572 -7.37364
H 3.67913 0.790295 -7.61465
H 3.35682 -0.657579 -7.31175
O 2.40886 7.44749 -3.97663
H 2.11218 8.27018 -3.58737
H 3.36156 7.46916 -3.88642
O -7.79573 -8.54187 -3.88421
H -7.39103 -9.40085 -3.76331
H -8.08278 -8.28635 -3.00716
O -7.43628 -0.208366 3.13874
H -7.44564 0.666509 3.52716
H -7.43384 -0.0518471 2.19401
O 9.70101 5.9019 -19.2619
H -9.91752 6.34313 -18.6314
H 9.72747 6.45869 -20.0404
O 3.84411 3.63894 -0.416472
H 4.22355 4.07384 0.347491
H 3.40398 2.86761 -0.0591566
O 8.49089 3.83264 -17.638
H 8.68271 4.22257 -18.4913
H 9.34908 3.6087 -17.2779
O 7.78352 -0.704664 -13.5625
H 7.58415 -1.63748 -13.4829
H 7.88974 -0.404038 -12.6596
O -6.02008 9.80436 -24.488
H -5.93055 9.20876 -23.7437
H -6.07697 9.22879 -25.251
O 3.18241 9.38181 8.19335
H 2.25938 9.14169 8.27452
H 3.26824 -9.79691 8.71013
O 3.33531 -7.55338 -14.0945
H 2.71471 -6.94054 -13.7
H 2.80439 -8.31414 -14.3304
O 1.24714 -3.76325 -16.0727
H 0.652974 -3.16969 -15.6132
H 2.11716 -3.39124 -15.928
O -0.0263598 -1.66181 -18.4718
H -0.615662 -0.936445 -18.6787
H 0.841944 -1.34348 -18.7187
O -6.81621 -6.51962 -23.108
H -6.73681 -6.31759 -22.1753
H -6.02618 -6.14958 -23.5021
O -2.31753 2.7573 -17.4787
H -1.86195 3.59576 -17.5539
H -3.15078 2.89571 -17.9292
O -3.55071 4.2313 5.91323
H -3.85718 4.58957 6.74663
H -4.2708 4.39203 5.30315
O -2.51901 7.64912 -22.9527
H -3.23312 7.01222 -22.978
H -2.94833 8.48372 -22.7646
O -5.4151 -8.71005 -11.1285
H -5.79464 -9.42368 -11.6414
H -6.14315 -8.37871 -10.6025
O 1.48402 -8.04364 -16.4576
H 1.83892 -8.76222 -15.934
H 0.716179 -8.41783 -16.8898
O -8.0229 -7.25291 11.6001
H -7.85328 -7.68094 10.7606
H -7.22011 -7.3862 12.1043
O -3.20449 9.57942 -11.7019
H -3.48139 8.95268 -11.0332
H -3.85195 9.48667 -12.4011
O 3.81489 7.50115 -21.1244
H 4.54695 7.43176 -21.7374
H 3.65141 8.44145 -21.0512
O -7.41163 -3.94465 8.63248
H -6.62421 -4.13688 9.14186
H -7.82259 -4.79809 8.4946
O -2.33721 6.90089 11.5114
H -2.18101 7.71281 11.0289
H -3.27313 6.91686 11.7115
O -0.144252 7.26234 -20.4047
H -1.07102 7.46004 -20.2695
H 0.267667 7.45602 -19.5622
O -3.21689 -7.15626 -8.63574
H -2.99728 -7.1703 -9.56772
H -2.38358 -7.30952 -8.19021
O 5.15979 -6.88091 -18.9867
H 4.97533 -6.70665 -18.0634
H 6.10306 -6.743 -19.0732
O -3.05237 5.13544 8.91796
H -2.17708 5.51387 9.00105
H -3.20112 4.68947 9.75213
O 5.11429 7.78771 -12.125
H 5.22462 8.73426 -12.2151
H 4.19886 7.67611 -11.8685
O 8.02705 -0.553284 -8.91766
H 8.63657 -0.0426432 -8.38454
H 7.2633 -0.679112 -8.35434
O 1.81355 -4.7577 5.26739
H 2.18932 -3.98392 5.68744
H 1.25572 -4.40693 4.57279
O 1.51743 0.0132024 10.6127
H 1.51048 0.752085 11.2214
H 2.0059 0.331923 9.85335
O 8.24362 -6.15123 1.66335
H 8.58453 -5.41885 2.17702
H 7.32865 -5.92343 1.49845
O -5.32379 -3.1451 11.8159
H -6.23625 -3.41723 11.7179
H -4.96735 -3.73509 12.4803
O -6.08355 7.19452 -0.692091
H -5.84151 6.32799 -0.365202
H -5.25084 7.65749 -0.784217
O -0.791636 4.96843 5.68392
H -1.59227 4.58268 6.03964
H -0.752445 4.65102 4.78133
O -8.11449 -9.05973 -7.59235
H -7.96119 -9.0325 -8.53722
H -9.0142 -8.75073 -7.4862
O 0.259476 8.65594 -0.615244
H -0.465557 8.08722 -0.874414
H -0.144101 9.31949 -0.0554868
O -8.45245 -6.06584 -1.88493
H -7.87501 -5.33416 -1.66702
H -9.14764 -5.67383 -2.41362
O 6.87532 1.42111 -17.2273
H 5.95989 1.65579 -17.0751
H 7.3044 2.25102 -17.4356
O -2.86277 -7.03416 -5.32741
H -3.41986 -6.89521 -4.56119
H -3.01702 -7.94607 -5.57423
O 8.71651 8.72748 10.7082
H 7.96601 8.22425 11.0241
H 9.47907 8.21397 10.9748
O -8.25372 -1.08467 -12.4239
H -8.66597 -1.92454 -12.2216
H -8.89948 -0.430123 -12.1578
O 2.32146 9.89827 -1.99784
H 1.91368 -9.75394 -2.79977
H 1.61982 9.42943 -1.54585
O -8.75501 7.37786 -23.1702
H -7.80564 7.39378 -23.049
H -8.95015 6.47422 -23.4185
O 6.15483 3.25642 -12.8664
H 7.03868 3.57142 -12.6771
H 6.25418 2.72146 -13.6542
O -0.909951 -7.5655 11.357
H -0.0231873 -7.66527 11.7034
H -0.798705 -7.05239 10.5562
O 8.26164 -1.11137 2.12342
H 8.55701 -0.382217 2.66894
H 8.94093 -1.77798 2.22562
O 4.51646 -1.62864 -20.1947
H 5.09332 -1.40907 -20.9267
H 3.83081 -0.961237 -20.2211
O -8.1268 -9.08125 -22.8181
H -8.1128 -8.16186 -23.0842
H -7.31391 -9.20143 -22.3269
O 9.8214 7.0985 -16.3812
H 10.006 6.30451 -15.8792
H 9.17188 7.56769 -15.8573
O -9.64902 -2.95329 4.14239
H 9.7123 -3.4358 4.14712
H -9.90854 -2.03302 4.09791
O 5.02408 3.52955 -22.8384
H 4.98036 4.48442 -22.7879
H 5.92069 3.3448 -23.1181
O -2.79383 3.09672 -1.41853
H -2.47596 3.81478 -0.870949
H -3.28608 2.53698 -0.817755
O 8.71232 -3.67168 -10.2956
H 9.38397 -3.34386 -9.69733
H 8.56008 -4.57383 -10.0141
O 2.21877 -9.48593 -5.4382
H 3.09345 -9.7531 -5.1556
H 2.28438 -9.4184 -6.39117
O -0.538233 -1.04077 8.16499
H -0.058661 -1.86762 8.11429
H 0.123687 -0.368998 8.00115
O -1.41068 1.67575 11.1069
H -2.0403 1.68489 10.3857
H -1.67235 2.4093 11.6636
O -3.48868 1.32434 9.50401
H -4.24312 1.86059 9.26002
H -3.83196 0.706654 10.1499
O -3.84038 -0.69635 -19.8833
H -3.87765 -0.922795 -20.813
H -4.21508 -1.45523 -19.4359
O 3.89826 -1.81691 -15.9453
H 3.33535 -1.33758 -15.337
H 4.66715 -1.25699 -16.0527
O -9.9991 2.20003 11.316
H 9.87704 2.27515 10.4137
H -9.8513 1.26268 11.4416
O 3.08374 3.96206 -10.9894
H 2.50931 3.652 -10.289
H 2.99866 4.91516 -10.9652
O -1.52943 -2.04824 -16.1638
H -0.981782 -1.90257 -16.9355
H -1.93357 -1.19766 -15.9922
O -1.85907 -9.3042 -20.0337
H -0.922048 -9.27774 -20.2275
H -1.90553 -9.34903 -19.0783
O 6.97721 6.67296 -13.9225
H 7.32039 7.46067 -14.3446
H 6.34358 6.99953 -13.2834
O 4.35434 8.09785 -15.2977
H 5.11927 7.52784 -15.2188
H 3.61345 7.53909 -15.0629
O 5.99224 -8.46932 -6.62056
H 6.1293 -8.02074 -7.45533
H 6.76971 -8.25777 -6.10359
O -1.59426 6.9724 -1.36805
H -1.51773 6.32091 -0.670656
H -1.72331 6.45754 -2.16495
O -8.17574 -5.75732 -13.1927
H -7.74756 -4.93453 -13.4292
H -9.04548 -5.69748 -13.5881
O -0.00812272 -3.35721 -7.9821
H -0.249434 -3.73541 -8.82803
H -0.31848 -3.99308 -7.33716
O -3.93747 0.211106 -9.31091
H -3.73304 0.77615 -8.56548
H -3.8384 -0.678498 -8.97161
O 1.10895 5.54574 11.4762
H 0.160562 5.51664 11.6025
H 1.29981 6.46754 11.3027
O 5.03976 0.0733962 -2.49155
H 5.20782 1.0152 -2.52305
H 5.10669 -0.151423 -1.56313
O 8.96872 -9.34089 -3.3764
H 8.50136 -9.74614 -2.64561
H 9.89362 -9.49764 -3.186
O -6.90632 9.00908 -2.79857
H -6.67742 8.59568 -1.96577
H -7.85005 8.87292 -2.88268
O -5.92551 -9.62342 -20.4646
H -6.42547 -9.77833 -19.6628
H -5.16533 9.7799 -20.3884
O -9.04129 -9.07963 -10.4339
H -9.0971 -8.15931 -10.6912
H -9.84058 -9.23731 -9.93121
O 6.5453 -7.39176 -2.55535
H 7.33851 -7.01209 -2.17716
H 6.84906 -8.17554 -3.01342
O 5.15506 -0.988987 10.9421
H 4.57239 -0.924452 10.1851
H 4.67967 -0.552448 11.6493
O 4.67033 9.06525 -3.47915
H 4.78768 8.88516 -2.54599
H 5.18236 8.38766 -3.92086
O -1.31925 -5.30831 -3.20606
H -1.95701 -5.85676 -3.6631
H -1.01862 -4.6868 -3.86935
O 9.20733 -4.72868 -1.23544
H 8.33521 -4.3358 -1.2712
H 9.08336 -5.54439 -0.749927
O -4.95662 -0.615661 7.40676
H -5.68848 -0.0476873 7.64773
H -4.32048 -0.499722 8.11283
O -4.18066 0.566447 -3.75893
H -4.60034 1.06424 -4.46089
H -3.24871 0.583836 -3.97673
O 8.45902 -1.05917 -22.6594
H 9.00127 -1.09684 -21.8712
H 8.40308 -1.96758 -22.956
O -1.57553 0.390782 -18.6952
H -2.42644 -0.026737 -18.829
H -1.75911 1.12908 -18.1141
O -5.83323 2.59732 8.75104
H -5.96742 3.46914 8.37919
H -6.57122 2.47481 9.34845
O -4.84039 1.83177 -19.3099
H -5.20167 1.61261 -18.4506
H -4.49585 1.00349 -19.6439
O 0.78875 -2.0311 -13.7075
H 0.673915 -2.71105 -13.0433
H 0.456777 -1.23395 -13.2943
O 4.91774 -4.06287 11.5832
H 4.19903 -3.63572 12.0495
H 5.54675 -3.3608 11.4168
O 7.9275 3.94388 -20.2601
H 7.85866 4.75818 -19.7614
H 7.06805 3.53269 -20.1678
O 5.21009 -6.16202 -5.1433
H 5.29111 -6.97641 -5.63995
H 5.79592 -6.2777 -4.39486
O 2.57257 2.46505 -23.2728
H 1.99593 3.15439 -23.6024
H 3.45326 2.8323 -23.3485
O 8.19042 0.0118637 9.48841
H 7.85519 -0.0827773 8.59645
H 8.43093 0.935772 9.55759
O 8.52978 1.15325 -19.9707
H 8.26976 1.16054 -19.0491
H 7.75375 0.841998 -20.4369
O -7.1042 2.03898 11.5159
H -7.97539 2.17089 11.89
H -6.93168 1.10477 11.6331
O 4.8881 -2.60164 -13.1905
H 4.70775 -1.89707 -13.8131
H 4.39212 -2.36294 -12.4071
O 6.99277 6.84903 11.5057
H 6.06035 7.06528 11.5134
H 7.02156 5.90531 11.6632
O 2.79201 7.38138 0.322905
H 2.22414 7.86405 0.923811
H 2.22165 7.14444 -0.408703
O 3.2006 -8.15616 9.24784
H 2.51962 -7.70748 8.74643
H 4.01479 -7.9403 8.79296
O -8.26495 -6.09235 -9.9322
H -8.22687 -5.68442 -10.7977
H -7.38674 -6.44776 -9.79553
O -4.76572 0.881359 -12.5953
H -5.64395 0.672068 -12.9134
H -4.90884 1.26458 -11.7295
O -1.32105 -3.99078 11.3226
H -1.05786 -4.34865 10.4743
H -1.18897 -3.0467 11.236
O 7.44101 0.914394 -3.8868
H 7.80568 0.115621 -3.50555
H 6.88069 0.606358 -4.59942
O 1.53116 -6.69807 -11.4752
H 1.08775 -6.02276 -11.9888
H 1.03929 -6.73763 -10.6546
O -4.38335 -4.61404 -10.4454
H -4.43551 -4.10988 -11.2577
H -4.64308 -5.50053 -10.6963
O 8.87306 -5.06484 4.29929
H 8.13352 -5.63069 4.52104
H 9.64667 -5.59584 4.48856
O 0.870926 8.72158 -10.932
H 0.337058 8.8362 -10.1455
H 0.260951 8.85393 -11.658
O 8.69843 9.56359 -18.2419
H 9.04316 8.83182 -17.7299
H 8.43143 9.1706 -19.0732
O -2.02757 -7.02402 7.08275
H -1.61719 -7.24738 6.24696
H -2.7296 -6.41624 6.85028
O 4.32589 -2.25484 -3.90833
H 4.3784 -1.51867 -3.29852
H 5.16753 -2.70173 -3.81792
O -6.9231 -3.24767 1.17539
H -7.87688 -3.21633 1.10083
H -6.74721 -3.04152 2.09384
O 10.0656 4.67868 -14.8125
H 9.61555 5.18827 -14.1384
H 9.66003 3.81272 -14.7694
O -8.35747 8.37189 -11.1192
H -8.59867 9.27545 -10.9151
H -8.82936 7.84589 -10.4733
O 7.73745 -3.23821 -12.8852
H 6.94256 -3.77047 -12.8524
H 8.17441 -3.40777 -12.0502
O -5.90885 5.14683 7.57065
H -5.72343 6.08121 7.47681
H -6.11921 4.85373 6.68366
O -3.2452 -5.82862 11.5713
H -2.65942 -6.57862 11.6743
H -2.66712 -5.06638 11.6037
O 9.30204 5.48592 6.96311
H 9.65186 6.33356 6.68848
H 8.52076 5.70219 7.47231
O 8.26132 -4.5955 -17.1847
H 7.40729 -4.33704 -16.838
H 8.08938 -4.82978 -18.0971
O 5.98287 8.80438 -6.62751
H 5.41018 9.44735 -6.20917
H 6.82304 9.25408 -6.71772
O -6.89146 9.29828 -18.2266
H -6.16156 9.15056 -17.625
H -7.67238 9.10236 -17.7087
O 2.9238 -5.67809 -7.87391
H 3.36403 -5.24297 -7.14345
H 3.56122 -6.31752 -8.19194
O -9.38508 -5.68107 -5.1384
H -9.11854 -6.59863 -5.08123
H -8.83754 -5.31492 -5.83323
O -6.07948 3.65395 -5.88752
H -6.55468 4.48461 -5.86656
H -6.75814 2.99257 -6.02259
O -2.41284 -5.69004 1.21354
H -1.65316 -5.8127 0.644014
H -2.763 -6.5719 1.33985
O -0.469299 1.28676 -1.69773
H -0.340094 2.23518 -1.69093
H 0.311473 0.935127 -1.26976
O -7.59742 -8.52964 9.11794
H -8.1717 -9.29421 9.07467
H -7.26781 -8.42627 8.22485
O -8.15965 8.41021 8.65889
H -8.20087 8.32197 9.61154
H -8.92927 7.93839 8.34047
O -7.76368 3.47074 -12.6609
H -8.59396 3.05832 -12.8992
H -7.74119 3.43015 -11.7044
O 7.38354 -4.05243 6.93914
H 7.75923 -4.73069 7.5007
H 8.01312 -3.95638 6.22424
O 2.31 2.60929 -2.95127
H 2.39253 1.66143 -2.84644
H 3.09476 2.86647 -3.43546
O 6.94222 -8.98314 -9.78885
H 7.0233 -8.03138 -9.85052
H 6.10342 -9.18004 -10.206
O 4.53069 -1.45119 -0.187826
H 4.847 -0.988546 0.5885
H 4.21786 -2.29231 0.145279
O -8.80985 1.49508 -2.96985
H -9.00595 0.561462 -2.89144
H -9.65416 1.90219 -3.16392
O -0.113277 -8.6203 -13.2295
H -0.306764 -7.9271 -13.8608
H 0.552122 -8.24242 -12.6542
O -4.29874 1.47665 0.55476
H -3.87895 0.956334 -0.130593
H -4.92711 0.878546 0.959483
O 0.850785 -9.85836 -20.2264
H 1.4231 -9.44961 -19.5768
H 1.44936 9.75818 -20.8792
O -7.62241 -8.12739 3.4134
H -7.67805 -7.54747 2.65356
H -7.97079 -7.60795 4.13832
O -3.17765 3.81489 -20.4767
H -3.20871 2.94652 -20.0751
H -3.93788 3.8379 -21.0582
O 7.11762 -8.91989 9.89219
H 8.07169 -8.87573 9.82858
H 6.94892 -9.68492 10.4424
O 9.59517 4.02876 -2.33257
H -9.6526 4.09643 -2.49884
H 9.3847 4.81097 -1.82235
O -6.19156 4.03646 5.0287
H -6.22192 3.09597 4.85318
H -6.48163 4.44245 4.21148
O 2.68957 -2.47017 -6.75946
H 2.21469 -3.29909 -6.69939
H 2.97181 -2.28979 -5.86238
O -0.217181 2.33447 -20.4938
H -0.201404 1.4784 -20.0657
H -0.432712 2.94936 -19.7923
O 9.3165 8.11794 7.61342
H 9.04634 7.57516 8.35444
H 8.68515 8.83728 7.60015
O -9.69696 -3.16103 -15.9313
H -10.0388 -2.69054 -15.1707
H 9.72584 -3.59439 -16.3095
O -5.74576 -3.44266 -20.9032
H -5.48494 -3.58728 -21.8131
H -6.25156 -4.22167 -20.6717
O 9.1366 1.93453 -14.6629
H 9.45465 1.03767 -14.7665
H 8.21 1.88929 -14.8988
O -2.80565 0.358534 -15.6658
H -3.09198 0.531187 -14.7685
H -3.49061 0.741016 -16.2145
O -2.80433 -6.14259 -14.1416
H -3.75959 -6.08187 -14.1356
H -2.50652 -5.2638 -13.9064
O -0.375572 -5.61248 9.3735
H 0.564841 -5.5993 9.55158
H -0.445223 -5.9344 8.47436
O -4.67698 -6.624 -3.22418
H -5.33882 -7.12937 -2.75194
H -4.44278 -5.91584 -2.62402
O 8.566 -4.35018 -6.24093
H 9.45023 -4.52451 -5.91834
H 8.65383 -3.55275 -6.7633
O 7.77637 -1.08126 -0.475212
H 7.10816 -1.76064 -0.384827
H 8.08309 -0.926021 0.418518
O -4.0087 1.47623 -23.2315
H -3.43129 0.713054 -23.2515
H -3.43876 2.2141 -23.4483
O -9.38867 2.39963 -20.8695
H -9.56152 2.15997 -21.7804
H 9.94724 2.33456 -20.4381
O 0.890312 7.83077 -6.24669
H 1.3349 7.49229 -5.46917
H 0.761741 8.76142 -6.06332
O -2.57271 1.4937 3.01022
H -3.12559 1.31705 3.77169
H -3.18039 1.80455 2.33885
O 1.20398 2.66599 1.62115
H 1.80548 2.39332 2.31433
H 1.32221 2.01398 0.930088
O 9.04314 5.55002 3.12995
H 9.08723 6.33998 2.59095
H 8.33387 5.72134 3.74975
O -4.62762 7.10154 -9.86658
H -5.23402 6.67055 -10.4691
H -5.18079 7.68157 -9.34307
O -9.77152 1.23918 0.355039
H 9.9435 1.36554 -0.46786
H 9.83834 1.60717 1.02358
O -5.94611 -8.76952 -16.061
H -5.35072 -9.39318 -16.4769
H -5.49898 -8.5116 -15.2546
O -1.60207 -4.52657 -10.1049
H -1.07295 -5.31299 -9.97135
H -2.50548 -4.82402 -9.99712
O -4.86209 4.87872 -3.63728
H -5.12407 4.32357 -4.37204
H -5.6259 5.4306 -3.46914
O 9.3491 -6.11416 -14.7101
H 9.28293 -6.93439 -15.1992
H 9.18723 -5.43234 -15.3624
O -7.41102 -4.95436 -6.85731
H -6.62426 -4.612 -7.28181
H -7.28501 -5.90318 -6.84781
O -2.39901 -3.01692 1.45302
H -2.61161 -3.93234 1.27118
H -2.69628 -2.87541 2.35222
O -7.53901 1.4889 -5.65099
H -7.28447 0.586646 -5.45759
H -8.19614 1.7002 -4.98756
O -5.01249 1.24941 4.635
H -5.05722 0.654866 5.38415
H -5.23469 0.703014 3.8808
O -2.04385 -6.13203 4.20671
H -2.30221 -5.4444 3.59273
H -2.8586 -6.59215 4.40855
O 1.13623 7.61636 -17.8495
H 1.94129 8.12071 -17.9668
H 1.43496 6.74268 -17.5971
O 0.468192 4.45429 -1.87029
H 0.629614 4.16868 -0.970669
H 1.17936 4.06308 -2.37789
O 6.26254 -3.582 -1.34574
H 5.78977 -4.31777 -1.735
H 5.73887 -2.81347 -1.5725
O 4.89331 -9.40039 -11.9498
H 5.40845 -8.87129 -12.5591
H 4.03476 -8.97755 -11.9314
O -0.581617 -2.94869 -0.883092
H -1.15405 -2.93441 -0.115709
H 0.137526 -3.52968 -0.63496
O 0.682609 -1.29034 -2.70809
H 0.0797157 -1.69314 -2.08292
H 0.325533 -1.51754 -3.56702
O 2.39309 -2.5578 11.034
H 2.9119 -2.2903 10.275
H 1.79872 -1.82371 11.1892
O 0.975948 -9.24182 5.52464
H 1.24743 9.82044 5.50784
H 0.0194644 -9.27413 5.50656
O 0.76836 7.70758 -23.0944
H 0.171065 8.2109 -23.648
H 0.304426 7.61544 -22.2619
O 5.37484 -9.49947 -15.3453
H 4.89924 -8.77054 -14.9467
H 4.73291 9.77202 -15.3919
O 4.47486 6.35069 5.35633
H 5.22081 6.10595 4.80846
H 4.61494 5.87905 6.17776
O -3.5832 8.60581 -1.35239
H -2.81264 8.04191 -1.41933
H -3.30515 9.32601 -0.786255
O -8.778 -1.62701 9.04944
H -8.46748 -2.53243 9.05359
H -8.52513 -1.29051 8.18938
O 8.52308 3.12257 1.61796
H 7.70308 2.69583 1.86649
H 8.60733 3.85462 2.22915
O -6.07766 -4.20648 -1.77975
H -6.13584 -3.88068 -0.881189
H -5.20687 -3.94093 -2.07556
O 2.02059 4.38918 5.22808
H 1.17804 4.59103 5.63518
H 2.551 5.17267 5.37322
O -3.06661 -0.148685 -1.52223
H -2.36008 0.4956 -1.47808
H -3.52821 0.0566814 -2.33559
O 5.41998 -2.2314 7.17696
H 6.19143 -2.76584 7.36536
H 5.74045 -1.32981 7.20304
O 6.06787 5.217 -6.84763
H 6.9542 5.40345 -6.53785
H 5.98676 4.26535 -6.78429
O 4.61107 5.55119 1.69372
H 5.42882 6.03991 1.78681
H 3.93105 6.22428 1.66603
O -9.7167 -6.86999 -21.8602
H -9.10108 -7.46799 -21.4362
H -9.73495 -6.10093 -21.2904
O -0.599897 -8.59241 -2.64686
H -0.852537 -9.21616 -1.96586
H -1.41296 -8.40803 -3.11736
O 7.75859 8.70882 -1.24754
H 8.2149 8.59777 -0.413092
H 6.83501 8.57332 -1.03562
O -5.24666 -7.93014 11.5563
H -4.57156 -7.25243 11.5905
H -4.81981 -8.71196 11.9069
O 0.212235 -6.29382 -14.615
H -0.724591 -6.25151 -14.8069
H 0.559777 -5.45972 -14.9309
O 8.06771 -6.99428 -5.18483