1877
Atoms. Timestep: 2151
N -3.32485 -2.86612 -20.9075
H -4.00243 -2.85484 -21.7091
H -3.77399 -2.44935 -20.0554
H -3.02638 -3.8418 -20.6689
C -2.20324 -2.03747 -21.4112
H -2.04379 -1.22165 -20.7208
C -0.909033 -2.89039 -21.5685
H -0.572882 -3.23138 -20.5652
H -0.123949 -2.20479 -21.9647
C -1.01472 -4.10764 -22.5194
H -1.61059 -3.81431 -23.4167
H -1.56395 -4.93169 -22.0146
C 0.33466 -4.63448 -23.0367
H 0.803341 -3.87472 -23.6996
H 0.178663 -5.56329 -23.6333
N 1.21126 -4.95674 -21.8632
H 0.939884 -5.66264 -21.2034
C 2.33543 -4.33522 -21.5334
N 2.94763 -4.72109 -20.4345
H 3.77787 -4.23038 -20.1384
H 2.49409 -5.42893 -19.8759
N 2.86972 -3.33743 -22.1981
H 2.36219 -2.93847 -22.9471
H 3.66594 -2.90943 -21.7787
C -2.58092 -1.41291 -22.7686
O -3.699 -1.71087 -23.2715
O -1.74246 -0.646501 -23.3016
Cl -5.81055 8.00712 -13.8663
Cl -8.88738 6.43605 11.461
Na 9.49797 8.42778 -17.9307
O -9.58977 -2.69466 11.0961
H -8.83685 -2.10588 11.3204
H -9.16371 -3.56722 11.2249
O 8.11965 -0.555737 7.18473
H 7.96674 -0.751146 8.13284
H 9.0585 -0.269682 7.22353
O -3.50955 1.2542 -5.89338
H -2.75958 0.663163 -6.11156
H -4.01696 0.678895 -5.28142
O -3.21464 7.7879 -17.269
H -2.69654 7.07146 -17.6405
H -2.58322 8.19084 -16.6375
O 6.47283 -2.44145 -3.12681
H 6.69445 -2.263 -2.18986
H 6.3318 -3.4115 -3.04776
O -3.08382 6.31866 6.57284
H -2.47062 6.39375 7.33319
H -2.43108 6.28164 5.83641
O -8.68541 2.88918 0.755776
H -8.41457 2.11577 0.227997
H -8.08691 2.79476 1.52876
O 4.02666 -8.95692 -13.3657
H 3.93959 -8.30455 -12.6395
H 4.67722 -9.587 -12.9858
O 1.61451 -2.19388 15.5866
H 2.17018 -2.95607 15.3157
H 0.969705 -2.1443 14.8494
O -0.153287 -2.22432 13.3842
H -1.05251 -2.41268 13.0404
H 0.242448 -3.11867 13.3339
O -6.1602 7.58598 10.1263
H -6.92302 7.21867 10.6183
H -6.02082 6.88167 9.46094
O -6.68763 4.87733 -14.909
H -6.31143 4.11214 -14.4274
H -6.07107 5.59477 -14.6797
O -5.53979 -6.5505 1.94663
H -5.41189 -7.35422 2.49888
H -6.48192 -6.6864 1.71441
O -8.34541 8.88346 -9.72179
H -8.20937 9.55253 -10.4229
H -7.45376 8.85805 -9.32466
O -9.35434 9.98174 19.8515
H -8.97085 -9.37266 19.2085
H -9.20437 -9.55396 20.6911
O 0.63336 -1.69791 0.795759
H 0.782602 -2.03189 -0.11053
H 1.28018 -2.22307 1.3002
O -1.44256 3.59648 8.83069
H -0.938395 2.82426 9.16262
H -1.20438 3.57778 7.87731
O 5.56141 8.86129 -15.4481
H 5.12738 9.69952 -15.7012
H 5.78282 9.02873 -14.507
O -6.08607 -0.169892 3.09825
H -5.90903 -0.933226 2.5125
H -5.18304 0.0619517 3.39534
O 9.17089 6.10481 -3.11223
H 8.88578 6.10362 -4.05269
H 9.96279 5.52727 -3.13055
O 3.40986 -7.19448 7.53682
H 3.15094 -7.70134 8.34145
H 4.37613 -7.15906 7.68125
O -2.54442 -6.2452 8.63427
H -1.76126 -6.80597 8.81788
H -3.06382 -6.86746 8.08016
O -3.82796 4.17562 10.0167
H -3.41941 4.51463 10.8431
H -3.02087 3.82225 9.58064
O -3.13818 9.68232 -1.37427
H -2.21984 9.51851 -1.67899
H -3.01005 9.67935 -0.401045
O -5.40102 -8.75128 3.53543
H -5.97649 -9.5434 3.5809
H -4.53109 -9.17931 3.67943
O -2.66692 -2.85709 12.4311
H -2.86355 -3.38097 11.6247
H -2.69918 -3.55785 13.1279
O -2.50201 -6.56053 18.1457
H -2.10069 -5.67798 18.2686
H -1.69903 -7.09303 18.0027
O 3.79975 6.65252 12.4958
H 4.38393 5.95016 12.851
H 3.07019 6.09506 12.1471
O -8.73866 -8.09752 -15.7453
H -8.11448 -8.62848 -16.2843
H -9.46632 -8.74646 -15.6511
O 3.74439 3.84554 -6.37449
H 4.14389 4.21405 -5.55544
H 3.36298 3.00129 -6.04784
O -4.36484 1.14411 17.3047
H -3.87261 1.97768 17.4564
H -3.75466 0.500949 17.719
O -5.93458 8.04044 -16.9502
H -5.86618 7.97489 -15.971
H -4.99013 7.90677 -17.189
O -0.527522 9.27167 -2.20468
H -0.646802 8.61574 -2.92648
H 0.396455 9.08229 -1.93978
O 9.82886 -3.6189 8.50007
H 9.74514 -3.17201 9.36498
H -9.38104 -3.66267 8.44827
O -7.31545 8.21561 13.5211
H -7.86244 7.76813 12.8402
H -7.1867 7.47259 14.149
O -2.57656 1.15181 10.9906
H -1.78331 1.31245 10.4397
H -2.13647 0.710583 11.7505
O 1.17827 5.59429 1.82067
H 0.947283 5.69777 0.878666
H 0.413844 5.04721 2.10082
O 5.10145 -4.45205 13.086
H 6.07881 -4.4828 13.1527
H 4.97473 -4.98987 12.2836
O -9.89151 1.73176 -6.95406
H 9.74603 1.00916 -7.34321
H -9.34515 1.9626 -7.7311
O -9.41018 0.325277 17.1543
H -9.40768 -0.640276 16.97
H -8.49758 0.460676 17.4853
O -4.39299 9.21603 6.6054
H -4.9847 8.51321 6.28841
H -4.11578 8.85235 7.46833
O -8.69107 -2.0917 -9.8874
H -8.20326 -1.2439 -9.89018
H -8.09807 -2.66305 -9.36572
O 3.83066 4.89706 2.432
H 4.25548 5.73399 2.16597
H 2.90457 5.04558 2.16161
O -4.90315 -8.05712 -16.2615
H -4.03681 -7.61157 -16.3235
H -5.51394 -7.29466 -16.1819
O -2.7184 3.16107 18.1249
H -2.90888 3.60753 18.9583
H -1.77541 2.90097 18.2464
O -2.59711 3.12795 -8.97453
H -1.66506 2.85609 -8.8464
H -2.83715 3.39596 -8.06105
O 0.464766 -0.338014 -4.22628
H 1.00653 0.297533 -3.71747
H -0.145979 0.244803 -4.68982
O -8.98847 -4.4203 -2.19055
H -9.19377 -3.82149 -2.93818
H -8.11192 -4.76433 -2.44504
O -3.68175 -0.104339 6.79534
H -2.79803 -0.495084 6.63537
H -4.01783 -0.753799 7.44306
O -5.59572 1.92548 6.09423
H -6.353 1.30314 6.05492
H -4.97372 1.40525 6.63799
O 9.42257 8.31595 18.2133
H 9.86186 8.74065 18.9888
H -10.027 8.38488 17.5747
O 7.36316 -9.22733 2.66025
H 7.65179 -9.89483 3.32003
H 7.00885 -8.5265 3.2422
O 1.99032 -3.10409 7.78653
H 1.42057 -3.89985 7.82779
H 2.76051 -3.44618 8.29175
O 5.35685 7.21593 2.21719
H 5.29159 7.39955 3.17565
H 6.29359 6.92585 2.17757
O 7.01776 -0.125586 -4.52577
H 6.91644 -0.960285 -4.01304
H 7.98776 -0.0985029 -4.63194
O -6.31349 4.22084 4.72654
H -6.47307 3.69877 3.91002
H -6.05193 3.49435 5.33508
O -1.78883 -3.93537 7.36649
H -2.04903 -4.70273 7.9195
H -1.18897 -4.39977 6.74254
O 4.98637 5.59362 18.3186
H 5.64337 4.89115 18.5145
H 5.58173 6.36801 18.2659
O 2.27806 -4.70643 -10.8535
H 1.54555 -4.11645 -11.1272
H 2.05119 -4.83527 -9.90834
O 4.9432 0.646016 3.80708
H 5.8035 0.295534 4.12461
H 4.59579 -0.117197 3.29464
O 0.267095 5.35759 17.978
H 0.22266 4.47157 18.3786
H -0.156135 5.17304 17.116
O 9.70769 -1.86487 -1.46852
H 9.83809 -2.13501 -2.40141
H -9.56524 -1.96167 -1.12876
O -3.74613 -7.94704 -12.1358
H -4.5048 -8.50815 -11.8599
H -3.52752 -8.41857 -12.9628
O 6.6288 9.51425 11.6412
H 7.55302 9.2654 11.8868
H 6.47224 8.90523 10.8955
O -10.0687 -6.96855 -13.6012
H 10.0491 -7.74302 -13.0023
H -9.49067 -7.32986 -14.3068
O 8.3763 -6.7691 18.0491
H 8.29101 -7.74528 18.112
H 9.35318 -6.65319 18.0902
O 8.06343 -2.87259 -7.91695
H 8.66183 -3.2977 -7.26614
H 8.09467 -3.51329 -8.65464
O -0.377961 8.03005 18.1979
H 0.213303 8.56159 18.7781
H 0.121388 7.19111 18.1411
O 9.45505 -8.28699 4.84893
H 9.08644 -9.17907 4.66761
H -9.77364 -8.52595 4.86044
O -7.52492 7.13364 1.8959
H -6.70693 7.48882 1.4843
H -7.78358 6.46731 1.22711
O -4.98886 -0.649201 -4.5703
H -5.31912 -1.44604 -5.03715
H -5.8294 -0.245469 -4.26238
O 1.50114 -7.27865 -4.6078
H 0.729915 -7.56332 -4.07329
H 1.53678 -7.97339 -5.30154
O 0.876387 9.97908 19.6164
H 0.574778 -9.26719 20.1603
H 1.57188 -9.57572 19.0781
O 9.90541 -4.20724 -6.30348
H -10.0162 -4.60745 -7.1583
H -10.0855 -4.96543 -5.71287
O 6.97659 -8.10913 -10.7133
H 6.82995 -7.55581 -9.91996
H 6.30329 -8.79821 -10.5569
O -5.615 0.823503 -7.65689
H -5.39394 -0.118321 -7.83041
H -4.82694 1.09311 -7.14654
O 9.56856 -6.04963 3.23966
H 9.54046 -6.94392 3.62746
H -10.0324 -5.61852 3.88823
O 1.65443 -0.686769 9.16739
H 1.98302 -1.14524 9.96827
H 1.60709 -1.45586 8.56276
O 1.74604 5.25999 11.3325
H 1.52605 5.70934 10.4874
H 1.89574 4.34258 11.0132
O -4.87191 3.3764 -2.06946
H -5.00522 3.16215 -1.12806
H -3.94633 3.68806 -2.04497
O -6.1088 -3.70465 13.1052
H -5.53605 -4.46469 12.8654
H -5.58391 -2.95058 12.7827
O -8.94976 2.45525 -9.54858
H -9.63983 3.1426 -9.45777
H -8.57688 2.75771 -10.4042
O 6.10769 3.30296 -7.63753
H 5.2323 3.56221 -7.27638
H 6.07733 2.33767 -7.47263
O 4.90775 3.50615 9.72038
H 5.3891 4.27003 10.0885
H 5.62053 2.83814 9.66371
O -7.36077 -0.161895 5.63948
H -7.04806 -1.00317 6.03951
H -7.10095 -0.280794 4.70563
O 5.36302 -6.03325 10.7189
H 5.13725 -6.82762 11.2528
H 5.64131 -6.49182 9.894
O 6.88216 5.46971 -15.8816
H 5.99023 5.7298 -15.5864
H 7.0774 4.73629 -15.2518
O 3.43905 5.33747 5.56749
H 2.92504 5.16848 6.38417
H 3.61135 4.40861 5.31199
O -7.95941 -7.60416 -8.89693
H -7.83848 -8.41491 -8.35792
H -7.21261 -7.07493 -8.54655
O 8.91335 8.84158 -2.97565
H 9.69428 9.02637 -3.53181
H 8.91515 7.86406 -2.95942
O 5.95639 9.11621 -12.6985
H 6.90611 9.07298 -12.4567
H 5.65263 8.35111 -12.1613
O 1.21442 6.54937 8.96994
H 1.49919 5.81268 8.38431
H 1.89712 7.22325 8.76428
O -6.59825 -9.12766 -4.51532
H -6.65509 -8.77799 -3.60501
H -5.62188 -9.22861 -4.6257
O 0.117201 -3.00972 -11.3799
H -0.123968 -2.18509 -10.9013
H 0.0302557 -2.72158 -12.2961
O 1.57256 -5.34673 18.0601
H 1.35375 -4.4214 18.298
H 2.5532 -5.2757 18.0312
O 0.478293 2.45737 4.16023
H 0.459064 1.73374 4.8214
H 1.14771 2.10337 3.53628
O 8.96741 -6.89427 14.288
H 9.90484 -7.11168 14.4697
H 8.56726 -7.76608 14.5041
O 4.93075 0.284521 -9.77833
H 5.22534 0.844236 -9.04941
H 4.97342 -0.594769 -9.37535
O 7.84492 -4.69052 13.1072
H 8.28023 -5.54375 13.3263
H 7.88405 -4.25202 13.984
O 6.98413 1.66224 9.83011
H 7.78164 2.00929 9.37663
H 7.14907 0.700159 9.76456
O -3.81481 0.954418 4.20862
H -4.39863 1.60142 4.64964
H -3.55543 0.440409 4.99804
O 8.8476 4.80068 10.1587
H 9.17079 3.94508 9.81473
H 9.64723 5.1837 10.5742
O 1.45831 -9.92739 13.3302
H 1.85017 9.654 14.1364
H 1.9706 9.60117 12.6235
O 6.14359 -5.13058 -2.56079
H 5.94101 -5.99573 -2.9717
H 7.06487 -5.2879 -2.25261
O 3.09754 6.01731 -10.4502
H 3.96225 6.14818 -10.8823
H 3.06246 6.87814 -9.97783
O -5.38576 8.44102 0.796358
H -5.10224 7.98618 -0.0243153
H -4.55747 8.89314 1.05821
O 7.68183 4.38388 -18.2628
H 7.37894 4.78688 -17.4213
H 6.8637 4.41794 -18.7954
O 6.92116 5.55354 15.9698
H 7.12932 4.95936 15.228
H 7.00641 4.93373 16.7212
O -5.4262 -3.12655 -5.70693
H -4.82021 -3.51412 -5.03954
H -6.10977 -3.82531 -5.70851
O -2.59127 -4.74187 14.3564
H -1.85247 -4.88999 14.9756
H -2.99644 -5.632 14.332
O 0.0447875 2.32277 -8.75233
H 0.389934 1.54091 -8.26957
H 0.497174 3.04611 -8.26454
O 9.06098 4.02767 1.42537
H 9.89556 3.56933 1.18693
H 8.80796 4.41442 0.559582
O -0.535693 -3.07557 3.99666
H -0.42811 -3.8463 4.60419
H -0.364867 -3.53945 3.14347
O -0.229699 -4.66813 1.81046
H 0.125833 -4.95066 0.944674
H -1.03284 -5.21585 1.88913
O -1.49889 8.95147 -15.435
H -0.863947 9.04602 -14.7034
H -2.2652 9.43817 -15.0676
O 2.30583 1.57871 7.68821
H 2.34546 0.765369 8.23593
H 1.59062 1.29408 7.07334
O 6.04092 -2.93296 18.2402
H 6.97088 -3.21098 18.3517
H 6.11903 -1.96409 18.3242
O 7.7243 -4.69967 -10.0048
H 6.96747 -4.4881 -10.5845
H 7.32329 -5.42512 -9.48018
O 8.12145 -0.315511 -16.3426
H 8.42202 0.549396 -16.7082
H 7.5795 0.00291762 -15.5906
O 4.47202 9.44461 6.12682
H 4.85718 8.65667 5.67825
H 5.23696 9.7413 6.66234
O -1.4437 -4.04115 18.0699
H -0.667457 -3.49669 18.322
H -1.13114 -4.35164 17.1904
O -9.84254 7.30835 3.44068
H -9.36882 6.82413 4.15314
H -9.11512 7.36696 2.78724
O -0.042241 9.43319 -13.0822
H -0.918478 9.45185 -12.6585
H 0.464355 9.03062 -12.3477
O -1.67992 4.63352 16.0729
H -2.1785 3.99602 16.6245
H -1.66764 4.16458 15.2194
O -0.0578672 2.58152 18.3148
H 0.869955 2.79865 18.0546
H 0.0948145 1.65802 18.5808
O -3.85337 -9.43558 10.6683
H -4.17999 -9.8987 11.4752
H -3.59229 9.7923 10.1022
O 9.4953 5.58445 18.1872
H -9.73396 5.62997 18.3808
H 9.2809 6.53666 18.2464
O 1.30097 0.055284 18.2549
H 2.25297 0.275045 18.3236
H 1.112 0.340387 17.337
O 7.86612 -9.42143 17.9889
H 7.12197 -9.55503 18.6225
H 8.40935 9.77243 18.1815
O -7.57694 -0.979628 11.8481
H -7.62302 -0.156854 12.3773
H -6.67162 -1.25803 12.0824
O -0.944445 8.95842 12.6232
H -0.81262 8.00061 12.79
H -0.153117 9.32534 13.0717
O -4.19136 6.105 -3.98803
H -3.28391 5.76543 -3.9795
H -4.28148 6.51962 -3.10624
O -0.754518 7.5674 -4.33229
H -1.14931 6.67671 -4.41199
H -1.23154 8.06041 -5.0403
O 5.04797 -4.47228 -11.2881
H 4.09838 -4.29689 -11.4416
H 5.39797 -4.36466 -12.2077
O 5.49922 1.54988 12.2002
H 5.99445 1.5921 11.3597
H 6.13647 1.08747 12.7816
O 3.244 -8.01052 1.68653
H 4.05627 -7.65075 1.27641
H 3.62323 -8.29423 2.55313
O 7.71491 6.37596 8.18622
H 7.616 5.84399 7.36554
H 8.13584 5.73393 8.79899
O 4.98026 4.79747 -12.9652
H 4.61705 5.31157 -13.7148
H 4.21468 4.23948 -12.7142
O -6.62674 3.38512 -6.93193
H -6.71903 3.24185 -5.97152
H -6.38165 2.49151 -7.24489
O 7.23088 3.60031 -13.9599
H 7.95374 3.50631 -13.2994
H 6.48502 3.91015 -13.4035
O -1.01484 4.12882 2.649
H -1.64378 3.51162 2.22476
H -0.488243 3.48563 3.17309
O -4.86724 2.29396 0.536794
H -3.98137 2.25847 0.958881
H -4.89378 1.43589 0.0651268
O -6.67063 2.4891 2.58338
H -6.60983 1.53987 2.82208
H -5.99888 2.53892 1.86725
O 8.60036 9.14598 4.52675
H 8.65836 8.85733 5.46298
H 9.21669 8.50794 4.10592
O -2.42167 -0.16839 -1.46938
H -1.75924 0.554907 -1.54192
H -2.23947 -0.453323 -0.547014
O -7.39521 -9.58404 -7.08074
H -7.28001 9.41758 -7.06367
H -6.97953 -9.35904 -6.2203
O 7.73395 -1.03155 9.92293
H 8.2621 -0.818142 10.7221
H 7.43547 -1.93125 10.1631
O -5.98361 -7.09056 5.69917
H -6.07056 -6.18085 5.336
H -5.95303 -7.62761 4.8811
O -5.20382 0.574563 -11.7811
H -5.8755 0.553952 -11.069
H -5.44183 -0.256589 -12.2442
O -2.68516 -9.17595 -9.83806
H -2.9153 -8.60004 -10.5944
H -2.51213 9.95991 -10.314
O -0.321254 -5.27861 5.50618
H -0.910934 -6.0099 5.21807
H 0.552615 -5.73156 5.48501
O -0.183739 -2.96462 -4.2278
H 0.238703 -2.07684 -4.32768
H -1.08327 -2.65371 -3.98152
O 5.70953 4.22521 -0.0364416
H 6.61231 4.55694 -0.23164
H 5.88301 3.59565 0.692743
O 3.05171 8.49787 -9.26464
H 3.66884 9.22804 -9.49037
H 3.18424 8.43227 -8.29357
O -6.99709 -9.47319 -17.3637
H -6.18041 -8.99777 -17.1036
H -6.66791 9.58219 -17.2951
O 2.40599 -1.90006 -6.36072
H 3.03306 -1.4716 -5.74577
H 2.46259 -2.82575 -6.07831
O 2.34495 2.82486 10.18
H 2.35645 2.41049 9.29857
H 3.30078 3.06434 10.2225
O -9.75605 6.77818 -10.8275
H -9.29523 7.47572 -10.3151
H -9.02651 6.48971 -11.4139
O -8.16958 5.17701 -8.37563
H -7.7294 4.42752 -7.92826
H -7.4523 5.50378 -8.95509
O -8.91678 8.50078 -13.6653
H -7.93987 8.53766 -13.7004
H -9.06504 7.56973 -13.9058
O -8.67469 -7.3858 15.2545
H -8.02499 -7.90542 14.7337
H -8.62479 -7.84367 16.1124
O 0.794713 -7.70459 11.8379
H -0.179727 -7.77557 11.9307
H 1.0648 -8.38196 12.4944
O 4.7218 -8.5057 -15.9915
H 4.46379 -8.43775 -15.0494
H 5.66456 -8.24217 -15.9568
O 5.21498 4.46147 13.4834
H 4.57283 3.72057 13.4667
H 6.02115 3.97459 13.7696
O 3.28447 -4.38564 15.1714
H 3.69001 -4.57207 16.0407
H 4.05687 -4.42653 14.567
O 8.01645 6.42446 2.35071
H 8.30748 5.5178 2.1259
H 8.78035 6.72333 2.88939
O -3.47489 5.54049 -9.96246
H -3.28979 4.63647 -9.63075
H -2.78975 5.59664 -10.6626
O -1.24711 5.61561 -11.4977
H -0.932532 4.78209 -11.8867
H -0.607388 5.69585 -10.7577
O -1.63245 4.88649 -4.26056
H -0.793816 4.41003 -4.45549
H -1.81937 4.53503 -3.36002
O 3.88402 2.57144 5.45496
H 4.11253 1.79856 4.89053
H 3.54175 2.1375 6.25686
O 7.5791 -3.38503 2.09395
H 8.40448 -3.01529 2.47777
H 7.10001 -3.61498 2.91427
O 8.07038 -1.25811 15.9401
H 7.72379 -2.14945 15.7262
H 9.02563 -1.45644 16.0062
O 7.23327 4.07158 18.2713
H 8.05859 4.56203 18.4739
H 7.54538 3.14738 18.3606
O -4.25684 2.24267 12.9805
H -3.81678 1.90254 12.1757
H -3.49527 2.3453 13.5726
O -5.53093 4.66368 13.0043
H -6.32226 4.34231 12.5236
H -5.0149 3.82967 13.0398
O 1.09703 3.44353 14.5306
H 1.97111 3.16286 14.1744
H 1.28056 4.37464 14.7651
O -4.84585 9.20509 12.7954
H -5.74293 8.83418 12.9182
H -4.31681 8.42051 13.051
O 3.92375 -4.76071 4.0777
H 3.70205 -3.95431 4.5931
H 4.89628 -4.7553 4.13626
O -3.62173 -4.35782 10.316
H -4.1433 -4.93804 10.9135
H -3.21633 -5.04067 9.73831
O 7.51683 5.26892 5.72035
H 8.34452 4.75995 5.8079
H 6.98501 4.70716 5.11816
O -9.76924 -5.52571 -8.6729
H -9.32134 -6.39402 -8.77983
H 9.70098 -5.5928 -9.31979
O 3.32852 -2.49183 5.46744
H 2.85088 -2.64522 6.3124
H 4.20294 -2.17361 5.78788
O -5.21233 5.94118 18.2977
H -5.44165 6.88788 18.2037
H -4.23462 6.01571 18.2415
O 6.04502 -4.57214 -13.774
H 6.50333 -5.4291 -13.6525
H 6.47572 -4.24993 -14.5873
O -1.4519 2.93501 13.7754
H -0.512496 3.14048 13.9929
H -1.3442 1.99714 13.5044
O -4.5015 -7.93597 -1.43627
H -4.03763 -8.79352 -1.5504
H -5.42638 -8.19251 -1.58386
O 5.99582 0.6345 -7.03427
H 5.61883 -0.249001 -7.24002
H 6.29129 0.487172 -6.11327
O -7.72175 3.57685 11.826
H -8.2065 4.4106 11.6448
H -7.3912 3.33871 10.9337
O 3.33643 -0.123839 15.1951
H 2.76909 -0.869286 15.4919
H 3.78322 -0.600717 14.4533
O 9.75307 -3.42231 -11.492
H -9.8732 -2.99186 -10.8045
H 9.04754 -3.8187 -10.9473
O 7.42129 -8.24775 -15.5623
H 7.36354 -7.70916 -14.7465
H 8.20699 -8.79809 -15.3504
O -7.23365 -8.23708 -1.97161
H -8.1762 -8.01283 -2.16015
H -7.36223 -8.84068 -1.20224
O -6.49114 -4.51158 4.89149
H -6.82765 -4.02307 4.11245
H -6.33269 -3.7751 5.52144
O 3.0894 -8.39305 -2.56242
H 4.00891 -8.14429 -2.79614
H 2.61089 -7.94465 -3.28873
O 6.66614 -4.14614 4.62028
H 7.57373 -4.07325 4.99494
H 6.26947 -3.37948 5.08478
O -9.21304 5.95826 -14.9203
H -9.49601 5.07396 -15.2337
H -8.28706 5.72317 -14.6905
O 9.23039 3.20114 -12.1515
H -9.98772 3.34047 -12.2099
H 9.06892 3.60344 -11.2693
O -0.274552 -5.10502 15.8843
H 0.172606 -4.9884 15.0167
H 0.477295 -5.37266 16.444
O 7.47777 -3.93614 15.6791
H 7.97881 -3.92545 16.5234
H 6.84235 -4.64923 15.8799
O 9.14397 -0.70728 12.2996
H 9.79007 -0.321516 12.9365
H 9.64114 -1.49186 11.9864
O 2.0096 7.65644 -16.044
H 1.05316 7.53376 -16.0661
H 2.06196 8.59741 -15.7675
O -3.54199 -7.30397 14.0552
H -2.84956 -7.7425 13.515
H -3.63249 -7.93258 14.8041
O -6.23352 -1.58313 18.3052
H -6.82761 -2.35218 18.3599
H -5.37035 -2.03633 18.2403
O -8.11438 -8.87673 -11.3075
H -8.10902 -8.26251 -10.5422
H -9.06318 -8.85831 -11.5566
O 8.69796 4.02419 -7.07014
H 9.23997 3.2219 -6.92609
H 7.81241 3.65001 -7.26605
O 8.60138 -0.162369 -7.76749
H 7.67269 0.117753 -7.77385
H 8.5274 -1.12193 -7.93824
O -5.98134 -6.29548 -7.55189
H -6.09978 -6.09719 -6.59973
H -5.31573 -7.01612 -7.53209
O -1.94763 9.03419 -6.30844
H -2.43552 8.54157 -7.00528
H -1.44317 9.67996 -6.84656
O -4.94005 7.65181 -1.81464
H -4.40085 8.46577 -1.89406
H -5.82558 7.92787 -2.12454
O -3.996 -9.36486 -5.20501
H -4.0882 -9.00239 -6.10817
H -3.24182 -9.96882 -5.33507
O 3.72404 2.55047 -0.944505
H 4.2675 3.30553 -0.63689
H 4.43842 1.88777 -1.04022
O 9.65062 -8.49546 1.21257
H 9.33669 -8.7171 0.314267
H 8.87831 -8.75275 1.74916
O -1.63772 -4.61696 -9.95776
H -0.960884 -4.17827 -10.5127
H -2.3104 -4.83388 -10.6381
O 1.52674 6.84015 4.24914
H 1.5224 6.51529 3.32409
H 2.2477 6.30065 4.63744
O -3.42973 7.59416 -8.12791
H -4.02621 7.03371 -7.58465
H -3.22203 6.94739 -8.83372
O 6.60179 -3.96414 8.02007
H 7.17465 -4.72424 7.78868
H 6.98828 -3.73352 8.89306
O 5.63297 6.80681 -11.2174
H 5.97631 6.47937 -10.3586
H 5.7099 6.01853 -11.7924
O -0.627871 -6.28636 -7.97368
H -1.09633 -5.75494 -8.65269
H -0.976788 -5.88313 -7.14388
O 1.86039 -5.11252 -8.1593
H 1.83738 -4.83365 -7.22139
H 1.04947 -5.6654 -8.17471
O -2.98533 9.86629 1.36565
H -3.01377 9.71876 2.33523
H -2.31992 -9.39511 1.31819
O 0.453852 0.505203 6.04736
H 0.866555 -0.104737 5.39464
H -0.303956 -0.0542175 6.31824
O 7.98225 -5.84034 0.998238
H 7.75726 -4.95026 1.3432
H 8.62164 -6.11042 1.69591
O 6.36137 -9.91834 0.246734
H 6.94742 9.27528 0.134825
H 6.58137 -9.70312 1.18351
O -4.87581 -1.25662 12.5024
H -3.988 -1.67403 12.4179
H -4.82266 -0.937519 13.4331
O 1.19183 -5.71612 8.31699
H 0.568502 -6.47194 8.37369
H 1.97737 -6.16579 7.94264
O -2.8815 -2.88517 2.5906
H -2.90854 -3.86849 2.5573
H -2.16271 -2.77436 3.24186
O 7.81566 -4.22451 -15.9215
H 8.09291 -5.03003 -16.3707
H 8.57033 -4.07757 -15.3108
O -0.297377 -8.01988 -2.65019
H -0.546718 -8.96816 -2.6018
H 0.212147 -7.94232 -1.82202
O 3.83058 4.79927 15.992
H 4.36594 5.13004 16.7447
H 4.48637 4.79956 15.2711
O -8.30689 6.01773 5.25761
H -7.67089 6.62036 5.66956
H -7.70319 5.28285 5.00903
O 4.15858 -5.12562 -0.641902
H 4.76123 -5.06229 -1.41326
H 4.60181 -5.85543 -0.156917
O 7.4301 3.22672 14.4847
H 8.27457 3.23439 14.9737
H 7.3747 2.27181 14.2535
O -7.23128 0.327439 -9.83036
H -6.70086 0.548798 -9.03758
H -7.9379 1.00398 -9.76009
O -5.40599 -2.63101 -1.64001
H -4.99507 -2.96564 -2.46237
H -5.14064 -3.34835 -1.02722
O 4.34089 6.45013 -15.1487
H 3.42432 6.77424 -15.2868
H 4.82341 7.30535 -15.2414
O 0.0956736 9.61036 10.1581
H -0.387258 9.3447 10.9654
H 1.00277 9.3428 10.4069
O 1.38292 -1.12608 4.13469
H 0.756774 -1.854 3.94198
H 2.15331 -1.63316 4.47729
O -6.93317 0.967284 18.0766
H -6.04484 1.19902 17.7242
H -6.72856 0.0323935 18.3198
O 6.07161 2.32354 -3.46308
H 6.47348 1.5539 -3.89896
H 6.05993 2.01821 -2.53383
O 8.60636 1.7374 17.9148
H 9.3361 1.08518 17.8304
H 8.85701 2.32956 17.1797
O -2.07808 -7.24524 4.8076
H -2.68567 -7.46464 5.54481
H -1.52314 -8.05712 4.80898
O -7.78112 -3.2704 2.81589
H -6.98614 -2.8372 2.44169
H -8.05266 -3.81959 2.04932
O 1.6316 6.14754 15.1333
H 2.4148 5.71511 15.5378
H 1.87852 7.08641 15.2712
O 0.780334 0.0439325 -7.39866
H -0.0600538 -0.254336 -6.98973
H 1.36004 -0.724254 -7.1797
O 0.896873 -2.66926 18.1651
H 1.0321 -1.76001 18.5038
H 1.1504 -2.51253 17.2278
O 9.40192 -8.88733 -11.8141
H 8.65959 -8.61335 -11.2363
H 9.17333 -9.83895 -11.9068
O 3.81463 -7.03627 -11.3483
H 3.0523 -6.4307 -11.2617
H 4.53504 -6.3819 -11.3662
O 2.43301 1.56032 -5.67861
H 2.98803 0.871014 -5.25458
H 1.93017 1.02179 -6.32005
O -7.91777 -6.53914 7.58055
H -7.21179 -6.96174 7.0449
H -8.54655 -7.27249 7.7256
O -0.573839 3.87651 6.25809
H -0.282088 3.32885 5.49997
H -0.874415 4.67706 5.77893
O -9.83228 -7.51028 -2.45371
H 9.7953 -6.74508 -2.20586
H 9.77683 -8.21798 -2.0908
O -9.8444 -2.51017 -4.09818
H -9.94419 -1.59093 -4.41952
H -10.0248 -3.01464 -4.92028
O -6.73494 3.22574 -4.06581
H -6.00345 3.33436 -3.40711
H -6.87202 2.2581 -4.00547
O 4.26568 -5.80826 -5.61177
H 3.363 -5.46152 -5.46949
H 4.74386 -4.94471 -5.60135
O -7.3684 0.506326 -3.75648
H -8.23366 0.255642 -4.12347
H -7.54516 0.495632 -2.79865
O -3.11982 3.91195 -6.39221
H -3.31004 2.99827 -6.08271
H -2.61824 4.27487 -5.63478
O -7.46751 6.06633 -12.1396
H -6.93368 6.12422 -11.3151
H -6.93011 6.64739 -12.7225
O -9.74861 -4.79319 15.4601
H -9.12453 -5.54056 15.4974
H 9.66497 -5.25262 15.0996
O -6.06614 3.97241 16.6365
H -5.62711 4.52101 17.3162
H -6.74154 3.50152 17.1503
O -9.21014 -6.09106 18.1874
H -8.6532 -6.87615 18.0674
H -8.56009 -5.3581 18.1204
O -6.85032 6.04544 -4.45982
H -6.93658 5.07596 -4.45575
H -5.86662 6.11463 -4.40901
O 5.25666 4.75269 -19.6363
H 4.65468 4.01859 -19.7948
H 4.70241 5.31549 -19.0439
O -3.59137 -5.09236 -11.8904
H -3.82402 -6.04412 -11.8715
H -4.36416 -4.65407 -11.4821
O 2.26569 8.99274 -1.96696
H 2.6466 9.87329 -2.16535
H 2.88667 8.67338 -1.27721
O -9.87173 -8.66701 -6.39682
H -8.991 -8.94186 -6.72446
H 9.78395 -8.93438 -7.18013
O 4.82649 1.42823 -12.3131
H 4.09172 2.04535 -12.1632
H 4.87465 0.975203 -11.4451
O 9.08183 -3.57453 5.7796
H 9.80031 -4.23939 5.6922
H 9.17975 -3.34405 6.7259
O -2.12753 3.96227 -1.76014
H -1.6956 3.08866 -1.64435
H -1.50881 4.51068 -1.2347
O -8.20821 -8.74288 17.6822
H -7.23458 -8.60549 17.7754
H -8.23991 -9.66824 17.3744
O 8.21232 -9.3154 15.2612
H 8.01217 -9.38214 16.2154
H 8.68802 9.82707 15.1024
O 3.34068 8.28722 -6.52806
H 4.20855 7.84396 -6.41246
H 2.87063 7.93167 -5.74228
O 6.62437 7.66786 17.6409
H 7.53461 7.94766 17.841
H 6.78141 7.07131 16.8714
O 5.6576 6.72568 -6.0712
H 5.4021 6.0615 -5.39584
H 6.61406 6.80204 -5.871
O 5.8055 3.93312 4.05422
H 5.15343 4.27747 3.3997
H 5.19812 3.39837 4.60773
O 10.0349 -8.17643 7.58827
H -9.67801 -9.01442 7.7618
H 9.75381 -8.29947 6.66153
O 2.00475 0.925224 2.44809
H 1.61705 0.179569 2.95459
H 2.82759 0.479567 2.17554
O 3.05023 -1.10014 -2.11896
H 3.65488 -1.45138 -1.42734
H 2.30071 -1.72513 -2.00252
O 8.54946 -9.1222 -1.25949
H 7.64712 -9.28205 -0.931842
H 8.6558 -9.90744 -1.85175
O 9.31803 4.46989 -9.75832
H 9.1222 4.60147 -8.81166
H 9.68759 5.34237 -10.0196
O -0.0729314 6.37876 13.0125
H 0.606303 5.99532 12.4136
H 0.407911 6.30984 13.8665
O 6.69104 -2.38396 -17.7293
H 7.13306 -1.58418 -17.3813
H 7.00951 -3.03916 -17.078
O 2.73535 8.70558 15.3639
H 3.54015 8.83139 14.811
H 3.1011 8.85352 16.2526
O 5.07993 4.78454 -4.18203
H 4.91246 5.20834 -3.31462
H 5.5071 3.94239 -3.89932
O -8.31996 -9.36701 5.25839
H -7.76054 9.98877 4.7535
H -8.15745 -9.66623 6.17646
O -8.23552 -4.59071 0.462824
H -8.2359 -5.53853 0.726637
H -8.61699 -4.65098 -0.435944
O -9.04143 9.60893 -4.38839
H -8.17067 -9.92809 -4.46955
H -9.55703 -9.84554 -5.03286
O 1.55099 -5.20549 10.9873
H 1.43236 -5.28029 10.0162
H 1.2981 -6.11749 11.2516
O 8.44064 8.55194 -11.6163
H 9.14962 7.88368 -11.6997
H 8.17558 8.35774 -10.6918
O -8.65411 7.58289 -17.1738
H -7.68083 7.6725 -17.2491
H -8.72227 6.97064 -16.4213
O -0.528865 1.76776 -1.4245
H 0.253546 1.59506 -1.98992
H -0.0525841 1.9876 -0.595061
O 9.51077 0.696783 -13.2451
H 9.39673 1.53801 -12.7532
H 8.59639 0.58821 -13.5827
O 2.76116 3.53076 -11.8608
H 2.76092 4.30139 -11.2626
H 1.81554 3.28678 -11.8652
O 0.76679 0.968196 15.733
H 1.57981 0.636746 15.3113
H 0.788388 1.90542 15.4465
O -6.87246 -5.43427 -5.07624
H -7.79637 -5.76545 -5.1208
H -6.68918 -5.54076 -4.12453
O -1.77503 -0.168771 15.773
H -0.868938 0.195077 15.8699
H -1.98352 -0.399793 16.7023
O -2.25292 4.99494 12.1465
H -2.034 4.18973 12.6599
H -1.44659 5.52633 12.3197
O -9.45898 -9.70004 -18.5748
H -8.55089 -9.68573 -18.1999
H -9.43836 -8.92971 -19.1491
O -7.49245 -9.81566 0.223163
H -6.75593 9.5882 0.517167
H -8.22817 9.51681 0.190439
O 7.54733 0.167963 4.54707
H 7.83366 -0.0416809 5.45973
H 7.9012 1.07729 4.42672
O 2.56399 6.82207 18.1959
H 3.29456 6.197 18.3864
H 1.80607 6.20641 18.1243
O -7.11956 -7.49432 11.6645
H -7.23488 -8.03068 12.4744
H -7.10763 -8.19598 10.9819
O -6.43594 -5.6285 -2.31287
H -5.99972 -5.39539 -1.47
H -6.64257 -6.5746 -2.14767
O -2.83191 -5.25137 -19.5943
H -2.24458 -5.97513 -19.2977
H -3.4558 -5.22003 -18.8381
O 6.0976 1.16887 -0.955885
H 7.01409 0.820674 -0.945631
H 6.03687 1.41594 -0.00638866
O 0.662448 8.30912 -10.6062
H 1.4972 8.5925 -10.1768
H 0.57277 7.4253 -10.1946
O 5.89818 -2.04945 6.27177
H 6.13634 -2.69893 6.97156
H 6.59422 -1.38039 6.4308
O 6.06589 -7.34777 8.39238
H 6.92461 -6.91858 8.18976
H 6.27803 -8.28644 8.20266
O 4.47154 -8.52913 4.06431
H 4.36284 -9.14701 4.80803
H 5.23756 -7.99497 4.35225
O -3.16744 9.74352 4.13143
H -3.56289 9.45763 4.97886
H -2.24418 9.9054 4.42941
O -8.98041 7.25628 8.44788
H -8.67133 6.36107 8.21171
H -9.0884 7.12921 9.41559
O -9.41826 -2.2343 16.2407
H -8.47612 -2.26065 15.9719
H -9.65221 -3.15621 15.9823
O -5.57888 -8.28645 17.9321
H -5.08631 -8.76766 18.63
H -4.99087 -8.46045 17.1633
O -9.11509 -1.52701 -13.0242
H -9.65453 -0.716459 -12.8981
H -9.58574 -2.15486 -12.4423
O 8.68234 -5.49761 -1.62515
H 9.46163 -4.90996 -1.62594
H 8.49633 -5.61831 -0.665906
O 1.03083 -2.9014 -1.6727
H 0.541011 -3.07652 -2.49702
H 1.08736 -3.80066 -1.28107
O 1.43751 -8.05004 -0.40224
H 2.09615 -8.24795 -1.10531
H 2.00819 -8.16646 0.393149
O -1.98389 8.5505 -11.2243
H -1.07346 8.42268 -10.8825
H -2.17668 7.66005 -11.5608
O -7.03436 1.35722 13.2658
H -6.0838 1.56503 13.3396
H -7.36085 2.16218 12.806
O -1.31402 9.54648 7.84223
H -0.699763 9.40644 8.59664
H -2.11652 9.12262 8.18895
O 2.52363 3.07262 17.7732
H 2.98287 3.63199 17.1175
H 3.16462 2.34292 17.8944
O -3.73796 -9.14872 16.0767
H -3.7871 9.88326 15.8252
H -2.98258 -9.18722 16.7026
O 1.19794 4.32142 -7.27745
H 0.889719 4.18553 -6.35878
H 2.16878 4.30719 -7.12731
O 9.99652 0.259812 -4.58864
H -10.0721 0.814091 -5.39307
H 9.99024 0.939135 -3.87999
O -3.73968 -8.03828 6.88258
H -3.94152 -8.99541 6.85877
H -4.59649 -7.67018 6.56942
O -5.22396 5.7563 8.29801
H -4.73857 5.15162 8.9037
H -4.54722 5.88974 7.60449
O -6.2451 2.89537 9.64333
H -5.37451 3.32561 9.78219
H -5.98501 1.95682 9.74283
O 8.69296 0.478654 -0.537434
H 8.69263 0.314745 0.437114
H 9.02612 -0.388493 -0.850499
O -1.36323 -5.09381 -5.63123
H -1.69335 -5.4855 -4.79983
H -0.980148 -4.26883 -5.28806
O -8.22781 9.8282 7.88234
H -8.4019 8.89223 8.12097
H -7.6309 -9.88434 8.61531
O 6.139 1.9982 1.6377
H 6.9882 1.96695 2.11073
H 5.53838 1.68148 2.34192
O 7.18186 -3.73287 10.6498
H 7.68627 -3.88042 11.4795
H 6.58103 -4.4973 10.7088
O 4.51839 -2.40564 -0.238623
H 4.31788 -3.36468 -0.27128
H 5.49675 -2.41502 -0.320752
O -10.0807 4.45443 6.67538
H -9.6693 5.02776 6.0001
H -9.31132 4.40109 7.28108
O -9.49819 -1.33401 -15.7967
H 9.78016 -1.06481 -16.0476
H -9.58118 -1.48026 -14.8345
O 4.1249 -4.06541 9.1741
H 4.33916 -4.84194 9.72804
H 4.952 -3.99532 8.65182
O -5.40435 -2.49833 1.70964
H -4.50143 -2.52568 2.1005
H -5.30546 -3.20356 1.04539
O -8.28226 8.34905 17.0281
H -8.29202 7.41222 17.3271
H -7.33376 8.52222 17.2241
O 8.75413 6.74238 -19.2752
H 8.61914 5.83099 -18.9492
H 8.21509 6.69715 -20.0952
O -8.09272 -3.6883 -15.6629
H -8.45968 -2.83569 -15.9817
H -8.82436 -3.94165 -15.0605
O -0.798441 -9.61578 5.2995
H 0.150969 -9.8594 5.18606
H -0.941916 -9.96283 6.20816
O -9.05858 -5.29211 5.41196
H -8.16269 -5.02176 5.12568
H -8.81564 -5.78419 6.22159
O -7.99647 5.87439 18.2151
H -8.10391 4.89449 18.1995
H -7.0484 5.9232 18.4445