ITEM: TIMESTEP
0
ITEM: NUMBER OF ATOMS
1877
ITEM: BOX BOUNDS pp pp pp
-1.0093999999999999e+01 1.0093999999999999e+01
-9.9900000000000002e+00 9.9900000000000002e+00
-3.7863999999999997e+01 2.0736999999999998e+01
ITEM: ATOMS id type xs ys zs
74 4 0.0395724 0.135902 0.00426385
75 4 0.0898434 0.0798754 0.00265706
1597 15 0.417529 0.5 0.00326278
1598 15 0.293823 0.427835 0.00326278
1610 15 0.0464112 0.427835 0.00326278
1611 15 0.170117 0.35567 0.00326278
1612 15 0.0464112 0.283504 0.00326278
1613 15 0.170117 0.5 0.00326278
1615 15 0.252588 0.5 0.0434421
1616 15 0.128882 0.427835 0.0434421
1628 15 0.00517589 0.35567 0.0434421
1629 15 0.00517589 0.5 0.0434421
1630 15 0.0876466 0.5 0.0836215
1674 15 0.293823 0.283504 0.00326278
1675 15 0.417529 0.211339 0.00326278
1676 15 0.293823 0.139174 0.00326278
1677 15 0.417529 0.35567 0.00326278
1678 15 0.376294 0.427835 0.0434421
1679 15 0.5 0.35567 0.0434421
1680 15 0.376294 0.283504 0.0434421
1684 15 0.458765 0.427835 0.0836215
1696 15 0.0464112 0.139174 0.00326278
1697 15 0.170117 0.0670086 0.00326278
1698 15 0.170117 0.211339 0.00326278
1699 15 0.128882 0.283504 0.0434421
1700 15 0.252588 0.211339 0.0434421
1701 15 0.128882 0.139174 0.0434421
1702 15 0.252588 0.35567 0.0434421
1703 15 0.211353 0.427835 0.0836215
1704 15 0.335059 0.35567 0.0836215
1705 15 0.211353 0.283504 0.0836215
1706 15 0.335059 0.5 0.0836215
1708 15 0.417529 0.5 0.123801
1709 15 0.293823 0.427835 0.123801
1719 15 0.00517589 0.0670086 0.0434421
1720 15 0.00517589 0.211339 0.0434421
1721 15 0.0876466 0.211339 0.0836215
1722 15 0.0876466 0.35567 0.0836215
1723 15 0.0464112 0.427835 0.123801
1724 15 0.170117 0.35567 0.123801
1725 15 0.0464112 0.283504 0.123801
1726 15 0.170117 0.5 0.123801
1770 15 0.417529 0.0670086 0.00326278
1771 15 0.376294 0.139174 0.0434421
1772 15 0.5 0.0670086 0.0434421
1773 15 0.5 0.211339 0.0434421
1774 15 0.458765 0.283504 0.0836215
1776 15 0.458765 0.139174 0.0836215
1790 15 0.252588 0.0670086 0.0434421
1791 15 0.211353 0.139174 0.0836215
1792 15 0.335059 0.0670086 0.0836215
1793 15 0.335059 0.211339 0.0836215
1794 15 0.293823 0.283504 0.123801
1795 15 0.417529 0.211339 0.123801
1796 15 0.293823 0.139174 0.123801
1797 15 0.417529 0.35567 0.123801
1806 15 0.0876466 0.0670086 0.0836215
1807 15 0.0464112 0.139174 0.123801
1808 15 0.170117 0.0670086 0.123801
1809 15 0.170117 0.211339 0.123801
1854 15 0.417529 0.0670086 0.123801
413 4 0.609562 0.495004 0.00657093
1404 4 0.891464 0.370112 0.00353102
1532 4 0.850512 0.0109271 0.0111208
1533 4 0.810598 0.0742413 0.00761
1647 15 0.912353 0.5 0.00326278
1648 15 0.788647 0.427835 0.00326278
1656 15 0.541235 0.427835 0.00326278
1657 15 0.664941 0.35567 0.00326278
1658 15 0.541235 0.283504 0.00326278
1659 15 0.664941 0.5 0.00326278
1661 15 0.747412 0.5 0.0434421
1662 15 0.623706 0.427835 0.0434421
1681 15 0.5 0.5 0.0434421
1683 15 0.582471 0.5 0.0836215
1739 15 0.788647 0.283504 0.00326278
1740 15 0.912353 0.211339 0.00326278
1741 15 0.788647 0.139174 0.00326278
1742 15 0.912353 0.35567 0.00326278
1743 15 0.871118 0.427835 0.0434421
1744 15 0.994824 0.35567 0.0434421
1745 15 0.871118 0.283504 0.0434421
1746 15 0.994824 0.5 0.0434421
1748 15 0.953589 0.427835 0.0836215
1749 15 0.541235 0.139174 0.00326278
1750 15 0.664941 0.0670086 0.00326278
1751 15 0.664941 0.211339 0.00326278
1752 15 0.623706 0.283504 0.0434421
1753 15 0.747412 0.211339 0.0434421
1754 15 0.623706 0.139174 0.0434421
1755 15 0.747412 0.35567 0.0434421
1756 15 0.706177 0.427835 0.0836215
1757 15 0.829883 0.35567 0.0836215
1758 15 0.706177 0.283504 0.0836215
1759 15 0.829883 0.5 0.0836215
1761 15 0.912353 0.5 0.123801
1762 15 0.788647 0.427835 0.123801
1775 15 0.582471 0.211339 0.0836215
1777 15 0.582471 0.35567 0.0836215
1778 15 0.541235 0.427835 0.123801
1779 15 0.664941 0.35567 0.123801
1780 15 0.541235 0.283504 0.123801
1781 15 0.664941 0.5 0.123801
1822 15 0.912353 0.0670086 0.00326278
1823 15 0.871118 0.139174 0.0434421
1824 15 0.994824 0.0670086 0.0434421
1825 15 0.994824 0.211339 0.0434421
1826 15 0.953589 0.283504 0.0836215
1827 15 0.953589 0.139174 0.0836215
1828 15 0.747412 0.0670086 0.0434421
1829 15 0.706177 0.139174 0.0836215
1830 15 0.829883 0.0670086 0.0836215
1831 15 0.829883 0.211339 0.0836215
1832 15 0.788647 0.283504 0.123801
1833 15 0.912353 0.211339 0.123801
1834 15 0.788647 0.139174 0.123801
1835 15 0.912353 0.35567 0.123801
1842 15 0.582471 0.0670086 0.0836215
1843 15 0.541235 0.139174 0.123801
1844 15 0.664941 0.0670086 0.123801
1845 15 0.664941 0.211339 0.123801
1867 15 0.912353 0.0670086 0.123801
163 12 0.356895 0.63964 0.000136516
164 4 0.333329 0.600347 0.00476484
1158 4 0.33167 0.956912 0.0119737
1552 15 0.170117 0.932991 0.00326278
1553 15 0.0464112 0.860826 0.00326278
1554 15 0.00517589 0.932991 0.0434421
1557 15 0.293823 0.860826 0.00326278
1558 15 0.417529 0.788661 0.00326278
1559 15 0.293823 0.716496 0.00326278
1560 15 0.417529 0.932991 0.00326278
1561 15 0.5 0.932991 0.0434421
1562 15 0.376294 0.860826 0.0434421
1563 15 0.0464112 0.716496 0.00326278
1564 15 0.170117 0.64433 0.00326278
1565 15 0.0464112 0.572165 0.00326278
1566 15 0.170117 0.788661 0.00326278
1567 15 0.128882 0.860826 0.0434421
1568 15 0.252588 0.788661 0.0434421
1569 15 0.128882 0.716496 0.0434421
1570 15 0.252588 0.932991 0.0434421
1571 15 0.335059 0.932991 0.0836215
1572 15 0.211353 0.860826 0.0836215
1573 15 0.00517589 0.64433 0.0434421
1574 15 0.00517589 0.788661 0.0434421
1575 15 0.0876466 0.788661 0.0836215
1576 15 0.0876466 0.932991 0.0836215
1577 15 0.170117 0.932991 0.123801
1578 15 0.0464112 0.860826 0.123801
1596 15 0.293823 0.572165 0.00326278
1599 15 0.417529 0.64433 0.00326278
1600 15 0.376294 0.716496 0.0434421
1601 15 0.5 0.64433 0.0434421
1602 15 0.376294 0.572165 0.0434421
1603 15 0.5 0.788661 0.0434421
1604 15 0.458765 0.860826 0.0836215
1606 15 0.458765 0.716496 0.0836215
1614 15 0.128882 0.572165 0.0434421
1617 15 0.252588 0.64433 0.0434421
1618 15 0.211353 0.716496 0.0836215
1619 15 0.335059 0.64433 0.0836215
1620 15 0.211353 0.572165 0.0836215
1621 15 0.335059 0.788661 0.0836215
1622 15 0.293823 0.860826 0.123801
1623 15 0.417529 0.788661 0.123801
1624 15 0.293823 0.716496 0.123801
1625 15 0.417529 0.932991 0.123801
1631 15 0.0876466 0.64433 0.0836215
1632 15 0.0464112 0.716496 0.123801
1633 15 0.170117 0.64433 0.123801
1634 15 0.0464112 0.572165 0.123801
1635 15 0.170117 0.788661 0.123801
1682 15 0.458765 0.572165 0.0836215
1707 15 0.293823 0.572165 0.123801
1710 15 0.417529 0.64433 0.123801
929 4 0.659249 0.888718 0.00813083
1555 15 0.664941 0.932991 0.00326278
1556 15 0.541235 0.860826 0.00326278
1580 15 0.788647 0.860826 0.00326278
1581 15 0.912353 0.788661 0.00326278
1582 15 0.788647 0.716496 0.00326278
1583 15 0.912353 0.932991 0.00326278
1584 15 0.994824 0.932991 0.0434421
1585 15 0.871118 0.860826 0.0434421
1586 15 0.541235 0.716496 0.00326278
1587 15 0.664941 0.64433 0.00326278
1588 15 0.541235 0.572165 0.00326278
1589 15 0.664941 0.788661 0.00326278
1590 15 0.623706 0.860826 0.0434421
1591 15 0.747412 0.788661 0.0434421
1592 15 0.623706 0.716496 0.0434421
1593 15 0.747412 0.932991 0.0434421
1594 15 0.829883 0.932991 0.0836215
1595 15 0.706177 0.860826 0.0836215
1605 15 0.582471 0.788661 0.0836215
1607 15 0.582471 0.932991 0.0836215
1608 15 0.664941 0.932991 0.123801
1609 15 0.541235 0.860826 0.123801
1646 15 0.788647 0.572165 0.00326278
1649 15 0.912353 0.64433 0.00326278
1650 15 0.871118 0.716496 0.0434421
1651 15 0.994824 0.64433 0.0434421
1652 15 0.871118 0.572165 0.0434421
1653 15 0.994824 0.788661 0.0434421
1654 15 0.953589 0.860826 0.0836215
1655 15 0.953589 0.716496 0.0836215
1660 15 0.623706 0.572165 0.0434421
1663 15 0.747412 0.64433 0.0434421
1664 15 0.706177 0.716496 0.0836215
1665 15 0.829883 0.64433 0.0836215
1666 15 0.706177 0.572165 0.0836215
1667 15 0.829883 0.788661 0.0836215
1668 15 0.788647 0.860826 0.123801
1669 15 0.912353 0.788661 0.123801
1670 15 0.788647 0.716496 0.123801
1671 15 0.912353 0.932991 0.123801
1685 15 0.582471 0.64433 0.0836215
1686 15 0.541235 0.716496 0.123801
1687 15 0.664941 0.64433 0.123801
1688 15 0.541235 0.572165 0.123801
1689 15 0.664941 0.788661 0.123801
1747 15 0.953589 0.572165 0.0836215
1760 15 0.788647 0.572165 0.123801
1763 15 0.912353 0.64433 0.123801
1728 15 0.252588 0.5 0.16398
1729 15 0.128882 0.427835 0.16398
1735 15 0.00517589 0.35567 0.16398
1736 15 0.00517589 0.5 0.16398
1737 15 0.0876466 0.5 0.20416
1798 15 0.376294 0.427835 0.16398
1799 15 0.5 0.35567 0.16398
1800 15 0.376294 0.283504 0.16398
1804 15 0.458765 0.427835 0.20416
1810 15 0.128882 0.283504 0.16398
1811 15 0.252588 0.211339 0.16398
1812 15 0.128882 0.139174 0.16398
1813 15 0.252588 0.35567 0.16398
1814 15 0.211353 0.427835 0.20416
1815 15 0.335059 0.35567 0.20416
1816 15 0.211353 0.283504 0.20416
1817 15 0.335059 0.5 0.20416
1818 15 0.00517589 0.0670086 0.16398
1819 15 0.00517589 0.211339 0.16398
1820 15 0.0876466 0.211339 0.20416
1821 15 0.0876466 0.35567 0.20416
1855 15 0.376294 0.139174 0.16398
1856 15 0.5 0.0670086 0.16398
1857 15 0.5 0.211339 0.16398
1858 15 0.458765 0.283504 0.20416
1860 15 0.458765 0.139174 0.20416
1862 15 0.252588 0.0670086 0.16398
1863 15 0.211353 0.139174 0.20416
1864 15 0.335059 0.0670086 0.20416
1865 15 0.335059 0.211339 0.20416
1866 15 0.0876466 0.0670086 0.20416
1783 15 0.747412 0.5 0.16398
1784 15 0.623706 0.427835 0.16398
1801 15 0.5 0.5 0.16398
1803 15 0.582471 0.5 0.20416
1836 15 0.871118 0.427835 0.16398
1837 15 0.994824 0.35567 0.16398
1838 15 0.871118 0.283504 0.16398
1839 15 0.994824 0.5 0.16398
1841 15 0.953589 0.427835 0.20416
1846 15 0.623706 0.283504 0.16398
1847 15 0.747412 0.211339 0.16398
1848 15 0.623706 0.139174 0.16398
1849 15 0.747412 0.35567 0.16398
1850 15 0.706177 0.427835 0.20416
1851 15 0.829883 0.35567 0.20416
1852 15 0.706177 0.283504 0.20416
1853 15 0.829883 0.5 0.20416
1859 15 0.582471 0.211339 0.20416
1861 15 0.582471 0.35567 0.20416
1868 15 0.871118 0.139174 0.16398
1869 15 0.994824 0.0670086 0.16398
1870 15 0.994824 0.211339 0.16398
1871 15 0.953589 0.283504 0.20416
1872 15 0.953589 0.139174 0.20416
1873 15 0.747412 0.0670086 0.16398
1874 15 0.706177 0.139174 0.20416
1875 15 0.829883 0.0670086 0.20416
1876 15 0.829883 0.211339 0.20416
1877 15 0.582471 0.0670086 0.20416
1579 15 0.00517589 0.932991 0.16398
1626 15 0.5 0.932991 0.16398
1627 15 0.376294 0.860826 0.16398
1636 15 0.128882 0.860826 0.16398
1637 15 0.252588 0.788661 0.16398
1638 15 0.128882 0.716496 0.16398
1639 15 0.252588 0.932991 0.16398
1640 15 0.335059 0.932991 0.20416
1641 15 0.211353 0.860826 0.20416
1642 15 0.00517589 0.64433 0.16398
1643 15 0.00517589 0.788661 0.16398
1644 15 0.0876466 0.788661 0.20416
1645 15 0.0876466 0.932991 0.20416
1711 15 0.376294 0.716496 0.16398
1712 15 0.5 0.64433 0.16398
1713 15 0.376294 0.572165 0.16398
1714 15 0.5 0.788661 0.16398
1715 15 0.458765 0.860826 0.20416
1717 15 0.458765 0.716496 0.20416
1727 15 0.128882 0.572165 0.16398
1730 15 0.252588 0.64433 0.16398
1731 15 0.211353 0.716496 0.20416
1732 15 0.335059 0.64433 0.20416
1733 15 0.211353 0.572165 0.20416
1734 15 0.335059 0.788661 0.20416
1738 15 0.0876466 0.64433 0.20416
1802 15 0.458765 0.572165 0.20416
1672 15 0.994824 0.932991 0.16398
1673 15 0.871118 0.860826 0.16398
1690 15 0.623706 0.860826 0.16398
1691 15 0.747412 0.788661 0.16398
1692 15 0.623706 0.716496 0.16398
1693 15 0.747412 0.932991 0.16398
1694 15 0.829883 0.932991 0.20416
1695 15 0.706177 0.860826 0.20416
1716 15 0.582471 0.788661 0.20416
1718 15 0.582471 0.932991 0.20416
1764 15 0.871118 0.716496 0.16398
1765 15 0.994824 0.64433 0.16398
1766 15 0.871118 0.572165 0.16398
1767 15 0.994824 0.788661 0.16398
1768 15 0.953589 0.860826 0.20416
1769 15 0.953589 0.716496 0.20416
1782 15 0.623706 0.572165 0.16398
1785 15 0.747412 0.64433 0.16398
1786 15 0.706177 0.716496 0.20416
1787 15 0.829883 0.64433 0.20416
1788 15 0.706177 0.572165 0.20416
1789 15 0.829883 0.788661 0.20416
1805 15 0.582471 0.64433 0.20416
1840 15 0.953589 0.572165 0.20416
1 10 0.357638 0.485986 0.319005
2 3 0.306435 0.488352 0.320783
3 3 0.37953 0.484161 0.335058
4 3 0.370305 0.443253 0.309859
10 8 0.467307 0.481331 0.282538
11 1 0.436095 0.489326 0.26717
12 1 0.453444 0.43289 0.290515
30 13 0.00133743 0.00195195 0.29177
115 12 0.0801962 0.118418 0.352724
116 4 0.0951752 0.0789554 0.345034
117 4 0.0429223 0.103829 0.361509
160 12 0.259213 0.141191 0.30334
161 4 0.276003 0.175627 0.313112
162 4 0.215464 0.132635 0.30892
493 12 0.221765 0.0142643 0.325762
494 4 0.245106 0.0536273 0.321069
495 4 0.180895 0.0159129 0.317501
919 12 0.116158 0.048999 0.297299
920 4 0.10792 0.00670029 0.290174
921 4 0.0840714 0.0785195 0.290717
937 12 0.342183 0.30981 0.298271
938 4 0.325075 0.266215 0.294933
939 4 0.330964 0.317184 0.313941
1030 12 0.0308104 0.354855 0.352895
1032 4 0.0418832 0.327051 0.365638
1045 12 0.128145 0.272923 0.362178
1046 4 0.0899073 0.296885 0.357027
1047 4 0.126443 0.231261 0.354135
1144 12 0.485536 0.0901401 0.304483
1145 4 0.439131 0.0892206 0.301145
1146 4 0.490698 0.126841 0.31483
1330 12 0.170101 0.366617 0.317469
1331 4 0.13032 0.366515 0.326357
1332 4 0.197146 0.332687 0.324264
1357 12 0.00757876 0.0451952 0.365728
1387 12 0.180652 0.16972 0.330148
1388 4 0.14802 0.181579 0.341287
1389 4 0.16003 0.13545 0.321214
1447 12 0.270953 0.23048 0.335114
1448 4 0.247317 0.196583 0.326932
1449 4 0.240767 0.244851 0.346718
13 8 0.539875 0.478178 0.275251
15 1 0.547291 0.436329 0.263034
16 9 0.582524 0.466767 0.294637
17 3 0.561871 0.46229 0.310065
18 5 0.651773 0.461662 0.292811
19 9 0.690905 0.450651 0.311974
20 3 0.736774 0.432478 0.310209
21 3 0.673178 0.460905 0.32752
22 9 0.68194 0.467668 0.271565
23 3 0.654375 0.475594 0.257647
24 3 0.731189 0.464059 0.270212
385 12 0.961908 0.468218 0.329363
387 4 0.936387 0.470627 0.343105
601 12 0.9415 0.114464 0.369277
603 4 0.937825 0.0676291 0.366082
709 12 0.958143 0.220571 0.360932
710 4 0.923597 0.187771 0.360604
711 4 0.995762 0.197153 0.366858
871 12 0.882504 0.318919 0.344192
872 4 0.92081 0.346812 0.342701
873 4 0.899103 0.277857 0.350365
1031 4 0.990197 0.37608 0.357217
1168 12 0.771151 0.314214 0.292418
1169 4 0.749576 0.281616 0.301801
1170 4 0.807982 0.329123 0.301361
1189 12 0.600902 0.128529 0.322622
1190 4 0.628766 0.106314 0.333453
1191 4 0.564334 0.0986782 0.320494
1358 4 0.984309 0.00596651 0.360864
1468 12 0.95537 0.0121121 0.321257
1469 4 0.915771 0.00144359 0.329472
1470 4 0.975331 0.0474667 0.329872
1486 12 0.681543 0.0644645 0.353919
1487 4 0.655767 0.0347651 0.363161
1488 4 0.725835 0.0595382 0.359502
5 7 0.381068 0.545245 0.306804
6 2 0.375152 0.587663 0.31804
7 8 0.453933 0.538038 0.299654
8 1 0.483924 0.528573 0.315204
9 1 0.47016 0.585931 0.291837
25 6 0.335942 0.556607 0.286446
26 11 0.288762 0.516302 0.283397
27 11 0.347956 0.605765 0.273629
40 12 0.343769 0.898498 0.313817
41 4 0.381268 0.906475 0.304199
42 4 0.362298 0.881862 0.327741
64 12 0.15643 0.71026 0.367042
65 4 0.141565 0.665821 0.370361
124 12 0.22657 0.883884 0.334516
125 4 0.193764 0.854616 0.328232
126 4 0.263267 0.880541 0.324236
373 12 0.41698 0.847147 0.355779
374 4 0.448838 0.817681 0.362519
375 4 0.400106 0.872708 0.368311
616 12 0.0533981 0.753203 0.331564
617 4 0.03301 0.709968 0.331986
618 4 0.089254 0.750144 0.342201
895 12 0.0779176 0.887788 0.319175
896 4 0.12361 0.891358 0.323365
897 4 0.0661058 0.842738 0.322961
1276 12 0.0202596 0.590741 0.35496
1277 4 0.00548556 0.551976 0.363097
1278 4 0.0624167 0.601085 0.361551
1426 12 0.302259 0.969419 0.357656
1427 4 0.311326 0.94523 0.343907
1428 4 0.258246 0.956287 0.361762
14 1 0.554696 0.526322 0.267259
289 12 0.885823 0.761461 0.368082
290 4 0.871908 0.80725 0.368413
291 4 0.847163 0.736637 0.3723
349 12 0.831534 0.72988 0.296224
350 4 0.833443 0.698512 0.308552
351 4 0.788726 0.7501 0.297565
386 4 0.960507 0.512658 0.32328
448 12 0.881415 0.645546 0.371018
449 4 0.88489 0.691893 0.36706
814 12 0.706707 0.766316 0.309295
815 4 0.663005 0.747989 0.310342
816 4 0.702231 0.811278 0.31472
1042 12 0.94898 0.924625 0.311138
1043 4 0.956965 0.920569 0.327179
1044 4 0.901791 0.922636 0.309697
1159 12 0.622647 0.744545 0.364397
1160 4 0.669688 0.750044 0.363577
1161 4 0.607396 0.783354 0.372403
1204 12 0.955667 0.907958 0.372297
1205 4 0.935182 0.866408 0.368257
1381 12 0.943531 0.619119 0.31624
1382 4 0.961209 0.663378 0.314823
1383 4 0.898589 0.623058 0.311211
1417 12 0.773628 0.912963 0.321155
1418 4 0.76991 0.86732 0.316361
1419 4 0.729514 0.925427 0.325373
1513 12 0.883941 0.531331 0.362741
1514 4 0.899197 0.575898 0.359861
1515 4 0.852529 0.536139 0.374866
154 12 0.0383396 0.408258 0.488063
156 4 0.0695253 0.372202 0.48857
217 12 0.179612 0.181632 0.446972
218 4 0.197788 0.138561 0.450429
219 4 0.212539 0.212697 0.452066
223 12 0.0734099 0.188789 0.398167
224 4 0.0601656 0.155639 0.409041
225 4 0.105969 0.166847 0.388946
598 12 0.0266 0.376076 0.438064
599 4 0.0444651 0.408723 0.448312
640 12 0.101942 0.0313313 0.470231
641 4 0.124714 0.0512972 0.482837
642 4 0.056035 0.0346283 0.474159
667 12 0.382901 0.365115 0.44931
668 4 0.427589 0.365083 0.454768
669 4 0.363475 0.325924 0.455903
682 12 0.411532 0.200851 0.498046
687 4 0.483986 0.234041 0.495595
817 12 0.300971 0.247247 0.466272
818 4 0.263183 0.224618 0.472421
819 4 0.326639 0.259498 0.479355
967 12 0.152566 0.422773 0.442262
968 4 0.140513 0.465214 0.4486
969 4 0.111263 0.400324 0.43986
1093 12 0.228353 0.31016 0.393969
1094 4 0.182384 0.308749 0.389997
1095 4 0.229339 0.331625 0.408568
1228 12 0.367644 0.294945 0.402195
1229 4 0.321174 0.300021 0.39945
1230 4 0.37976 0.334085 0.410638
1249 12 0.237715 0.0210711 0.458269
1250 4 0.192566 0.0324329 0.461411
1261 12 0.493759 0.475676 0.462501
1262 4 0.491582 0.435042 0.471121
1297 12 0.0186249 0.282282 0.404106
1298 4 0.0284281 0.30919 0.417191
1299 4 0.0483082 0.245075 0.405249
1435 12 0.309441 0.184384 0.376427
1436 4 0.306313 0.140378 0.382793
1437 4 0.329982 0.210545 0.388139
1438 12 0.242768 0.365215 0.432194
1439 4 0.213664 0.392785 0.441021
1440 4 0.282094 0.3618 0.441244
1477 12 0.258173 0.385586 0.497364
1498 12 0.0679612 0.479279 0.399038
1499 4 0.0490257 0.43699 0.403083
52 12 0.742223 0.0544044 0.420966
53 4 0.7305 0.0822251 0.433635
54 4 0.728384 0.0104541 0.425385
83 4 0.705259 0.00959406 0.384537
205 12 0.543045 0.250501 0.451443
206 4 0.55379 0.205034 0.45502
207 4 0.530102 0.269703 0.465728
253 12 0.825243 0.137337 0.469139
254 4 0.813537 0.172068 0.479642
255 4 0.806261 0.097629 0.475523
310 12 0.563949 0.386036 0.426341
311 4 0.542933 0.415745 0.436914
312 4 0.559307 0.342659 0.433088
382 12 0.88934 0.296847 0.483132
383 4 0.887226 0.327632 0.495626
384 4 0.855643 0.264505 0.486365
430 12 0.716762 0.297848 0.450351
431 4 0.711622 0.317784 0.465097
432 4 0.738974 0.256384 0.45325
517 12 0.792649 0.023974 0.378714
518 4 0.762376 0.0391108 0.390177
519 4 0.830992 0.00995048 0.387048
580 12 0.766644 0.17983 0.419737
581 4 0.812942 0.179405 0.423257
582 4 0.753946 0.133675 0.419908
600 4 0.980612 0.373643 0.441952
602 4 0.933341 0.117988 0.385323
685 12 0.523331 0.250601 0.488439
766 12 0.94893 0.0444444 0.452023
767 4 0.935603 0.0832898 0.460408
768 4 0.960786 0.0124931 0.463488
769 12 0.575738 0.123874 0.456204
770 4 0.606036 0.0904499 0.461495
771 4 0.595901 0.165456 0.460394
828 4 0.738137 0.489073 0.435092
1102 12 0.804884 0.433283 0.488302
1103 4 0.770741 0.406168 0.494859
1104 4 0.842434 0.426395 0.497995
1162 12 0.901476 0.175626 0.430061
1163 4 0.936422 0.1673 0.440729
1164 4 0.861737 0.166546 0.438416
1177 12 0.70002 0.0618118 0.478695
1178 4 0.718273 0.090957 0.490032
1179 4 0.660934 0.0438644 0.485627
1359 4 0.992823 0.0524567 0.381052
1450 12 0.582821 0.0167167 0.402962
1451 4 0.619906 0.0231533 0.412901
1452 4 0.547675 0.00279047 0.412845
1480 12 0.95745 0.0254254 0.488882
1482 4 0.922652 0.050861 0.495803
28 14 0.202744 0.873273 0.40245
66 4 0.194574 0.716277 0.376524
166 12 0.415841 0.641041 0.478814
167 4 0.446191 0.605431 0.481989
168 4 0.425174 0.674058 0.490205
257 4 0.261059 0.53643 0.499492
274 12 0.0478502 0.65951 0.471852
275 4 0.0598768 0.684693 0.485115
276 4 0.0821406 0.668933 0.461038
398 4 0.498501 0.915002 0.436636
475 12 0.237418 0.583333 0.434378
476 4 0.194842 0.578501 0.441375
477 4 0.257952 0.540486 0.436207
478 12 0.34996 0.990791 0.462313
479 4 0.320747 0.95752 0.468383
480 4 0.390988 0.983563 0.470121
502 12 0.0918863 0.866316 0.45617
503 4 0.0877069 0.830945 0.467092
504 4 0.136348 0.862543 0.450644
505 12 0.155786 0.745596 0.481801
506 4 0.128323 0.71003 0.487301
507 4 0.186263 0.753959 0.493984
508 12 0.0575094 0.873273 0.385437
509 4 0.0504238 0.8538 0.40016
510 4 0.0545611 0.836404 0.375056
529 12 0.32336 0.746496 0.451033
530 4 0.325655 0.703008 0.444227
531 4 0.362904 0.76855 0.446064
532 12 0.443481 0.740541 0.425317
533 4 0.456894 0.697574 0.419762
534 4 0.466589 0.74555 0.439477
673 12 0.34996 0.888589 0.493251
727 12 0.155043 0.54024 0.467466
728 4 0.187451 0.554108 0.478412
729 4 0.119594 0.522374 0.476442
799 12 0.213295 0.848148 0.443371
800 4 0.199344 0.8659 0.457761
801 4 0.260651 0.848094 0.444179
867 4 0.008177 0.720932 0.48607
901 12 0.0333366 0.597598 0.431273
902 4 0.0727949 0.624161 0.431221
903 4 0.0148484 0.60422 0.446143
979 12 0.423519 0.837938 0.443627
980 4 0.453422 0.86751 0.45131
981 4 0.451004 0.802379 0.438135
1152 4 0.21095 0.946988 0.492877
1210 12 0.134139 0.592593 0.380523
1211 4 0.168643 0.578293 0.390609
1212 4 0.104611 0.555184 0.379713
1231 12 0.237914 0.889239 0.477705
1232 4 0.257594 0.845802 0.478931
1233 4 0.24673 0.91006 0.492099
1251 4 0.241497 0.975146 0.462733
1252 12 0.492966 0.558008 0.426989
1253 4 0.457326 0.54352 0.436563
1255 12 0.154944 0.684685 0.43518
1256 4 0.160257 0.698815 0.45068
1257 4 0.184115 0.647184 0.433652
1295 4 0.0617454 0.787041 0.498628
1453 12 0.348128 0.620771 0.413321
1454 4 0.366726 0.659016 0.420785
1455 4 0.308982 0.610781 0.421884
1494 4 0.489041 0.694956 0.468683
1500 4 0.0524923 0.509436 0.410557
82 12 0.676541 0.972022 0.386734
84 4 0.695652 0.948093 0.39926
277 12 0.748762 0.642492 0.499309
301 12 0.775609 0.964565 0.418338
302 4 0.815413 0.961988 0.42717
303 4 0.740757 0.964778 0.429412
322 12 0.711413 0.530731 0.46361
323 4 0.689515 0.555941 0.475272
324 4 0.740065 0.500937 0.471745
343 12 0.704973 0.767768 0.457194
344 4 0.744253 0.794427 0.456154
345 4 0.68627 0.779179 0.47169
397 12 0.503715 0.934685 0.421853
399 4 0.539193 0.966021 0.423663
442 12 0.762483 0.677978 0.392212
443 4 0.745479 0.718953 0.386103
444 4 0.730547 0.664773 0.403414
450 4 0.871587 0.645619 0.386997
490 12 0.674064 0.964715 0.454958
491 4 0.717065 0.944955 0.45636
492 4 0.653354 0.956633 0.469391
619 12 0.945066 0.725876 0.419208
620 4 0.920598 0.76407 0.424324
621 4 0.966099 0.709047 0.432676
631 12 0.610511 0.885636 0.391785
632 4 0.587843 0.918449 0.400766
633 4 0.648294 0.908741 0.385841
679 12 0.818506 0.832633 0.447108
680 4 0.800745 0.82649 0.462108
681 4 0.858583 0.857292 0.449455
733 12 0.755895 0.846747 0.378594
734 4 0.710275 0.851997 0.382671
735 4 0.772497 0.891514 0.377532
826 12 0.73083 0.503804 0.419754
827 4 0.706755 0.544816 0.421333
841 12 0.666634 0.917618 0.49808
865 12 0.981672 0.723373 0.472552
866 4 0.937265 0.728169 0.478037
892 12 0.893947 0.96967 0.454566
893 4 0.870556 0.929895 0.450327
894 4 0.902676 0.964275 0.470515
904 12 0.636021 0.665215 0.426631
905 4 0.663558 0.697232 0.434224
906 4 0.598307 0.660439 0.436395
943 12 0.522786 0.91031 0.463968
944 4 0.558084 0.937583 0.469667
945 4 0.508888 0.884419 0.476851
1206 4 0.958879 0.906565 0.388587
1222 12 0.826332 0.8498 0.488968
1223 4 0.792562 0.81623 0.48829
1254 4 0.531214 0.535866 0.433006
1263 4 0.500902 0.50985 0.473681
1405 12 0.90212 0.925826 0.497039
1406 4 0.872057 0.889223 0.49899
1492 12 0.51382 0.723574 0.458746
1493 4 0.554358 0.731744 0.466747
155 4 0.0365338 0.42448 0.50342
172 12 0.100902 0.311562 0.585075
173 4 0.0573946 0.306478 0.591333
174 4 0.120997 0.345732 0.594194
214 12 0.00678621 0.328679 0.609222
241 12 0.211859 0.495996 0.558489
242 4 0.247903 0.493577 0.569069
243 4 0.182559 0.460817 0.563078
295 12 0.119675 0.0847848 0.505589
296 4 0.150661 0.0849805 0.517952
297 4 0.0869979 0.117184 0.509838
307 12 0.300426 0.0947948 0.584461
308 4 0.302044 0.114656 0.599315
309 4 0.32674 0.0551308 0.585782
355 12 0.317565 0.353904 0.545861
356 4 0.340715 0.37198 0.558715
357 4 0.294506 0.315849 0.551807
466 12 0.223004 0.0449449 0.548591
467 4 0.200954 0.0162889 0.559252
468 4 0.254511 0.0691027 0.5576
484 12 0.466713 0.36982 0.574103
485 4 0.47105 0.408023 0.583845
486 4 0.426749 0.348523 0.579056
571 12 0.0186249 0.178278 0.515179
572 4 0.0428919 0.209352 0.524381
573 4 0.0117623 0.140436 0.524913
587 4 0.320078 0.0977294 0.622608
605 4 0.161543 0.146489 0.614215
649 12 0.265554 0.218418 0.514189
650 4 0.250861 0.234334 0.52874
651 4 0.276703 0.172473 0.51677
658 12 0.346741 0.00215215 0.571663
659 4 0.31203 0.0347203 0.570943
660 4 0.37472 0.0172356 0.583805
683 4 0.369227 0.182026 0.501681
684 4 0.427085 0.219173 0.512155
730 12 0.245393 0.428128 0.605024
731 4 0.289787 0.41356 0.607893
732 4 0.218448 0.399386 0.614222
781 12 0.0284823 0.169419 0.617225
782 4 0.0299905 0.195044 0.603433
785 4 0.0170814 0.428171 0.57316
793 12 0.11809 0.431982 0.555929
794 4 0.0785108 0.406111 0.557687
795 4 0.129269 0.445635 0.571105
823 12 0.0277888 0.110861 0.55226
824 4 0.0468699 0.117526 0.56704
825 4 0.00846954 0.0671619 0.552985
886 12 0.146721 0.0841341 0.594819
887 4 0.1868 0.104982 0.599883
888 4 0.113465 0.100423 0.605052
910 12 0.234892 0.234134 0.551595
911 4 0.199406 0.252829 0.560355
912 4 0.265504 0.217733 0.562745
934 12 0.230384 0.235936 0.591782
935 4 0.239199 0.249079 0.607193
936 4 0.199548 0.199756 0.593121
1012 12 0.419754 0.238989 0.544052
1013 4 0.432653 0.198153 0.551346
1014 4 0.416569 0.270762 0.556228
1060 12 0.283634 0.116817 0.529274
1061 4 0.239961 0.134347 0.531447
1062 4 0.2828 0.0740361 0.536621
1126 12 0.439865 0.35981 0.506152
1127 4 0.417612 0.318665 0.502798
1128 4 0.405651 0.388863 0.511607
1240 12 0.443432 0.212813 0.588881
1241 4 0.477328 0.185554 0.595519
1242 4 0.418853 0.229459 0.601644
1306 12 0.124827 0.454755 0.600997
1307 4 0.169016 0.442019 0.596971
1308 4 0.12674 0.462996 0.617074
1315 12 0.346344 0.328779 0.595638
1316 4 0.3809 0.326906 0.606805
1317 4 0.307458 0.314687 0.603655
1333 12 0.348672 0.425075 0.519291
1334 4 0.32367 0.39106 0.526915
1335 4 0.383134 0.436432 0.529821
1378 12 0.14256 0.307007 0.510708
1379 4 0.110068 0.275038 0.515473
1380 4 0.183631 0.283129 0.511285
1478 4 0.228197 0.361096 0.506874
1479 4 0.292799 0.399535 0.507458
1489 12 0.0796017 0.219019 0.554154
1490 4 0.0844453 0.248996 0.566786
1491 4 0.0562445 0.181418 0.560295
1501 12 0.424708 0.0371872 0.508763
1502 4 0.378368 0.0364639 0.505313
1503 4 0.437285 0.0830832 0.506984
43 12 0.829899 0.434685 0.593471
44 4 0.850235 0.456504 0.606214
45 4 0.803581 0.399937 0.600123
171 4 0.561713 0.477956 0.588229
194 4 0.860155 0.495187 0.570066
215 4 0.959505 0.33109 0.608318
229 12 0.887359 0.394344 0.520554
230 4 0.873609 0.353775 0.527837
231 4 0.927814 0.40613 0.528066
244 12 0.582326 0.22002 0.574751
245 4 0.615699 0.202165 0.584629
246 4 0.541671 0.202045 0.580504
250 12 0.904993 0.31041 0.547789
251 4 0.906759 0.271698 0.557392
252 4 0.935027 0.341436 0.554707
299 4 0.970099 0.00363756 0.619291
340 12 0.822568 0.28023 0.590673
341 4 0.831427 0.23468 0.59471
342 4 0.851064 0.305906 0.600358
496 12 0.671389 0.432933 0.531015
497 4 0.643589 0.468156 0.53657
498 4 0.706088 0.429534 0.542086
590 4 0.759981 0.484876 0.54515
610 12 0.660244 0.153153 0.609085
611 4 0.707533 0.149687 0.608996
612 4 0.65135 0.193469 0.61736
686 4 0.550166 0.26623 0.500806
712 12 0.528383 0.144494 0.605519
713 4 0.509731 0.116023 0.616977
714 4 0.574551 0.133583 0.605448
761 4 0.544791 0.494679 0.552201
783 4 0.982543 0.159194 0.61927
784 12 0.987171 0.396747 0.56639
786 4 0.948305 0.422384 0.563054
790 12 0.725877 0.205005 0.545622
791 4 0.699357 0.184058 0.557126
792 4 0.743951 0.243732 0.55295
820 12 0.693035 0.0558058 0.589256
821 4 0.671104 0.0971941 0.592511
822 4 0.719227 0.0470832 0.602543
859 12 0.689023 0.435185 0.60627
860 4 0.724811 0.437105 0.616964
861 4 0.654113 0.413038 0.614341
862 12 0.937141 0.111762 0.612464
863 4 0.966195 0.0948224 0.624008
864 4 0.896491 0.120584 0.620316
970 12 0.99995 0.28964 0.610672
971 4 0.981601 0.327571 0.618392
972 4 0.982379 0.251808 0.618659
973 12 0.534575 0.273674 0.619904
974 4 0.550455 0.264074 0.604865
1057 12 0.816525 0.165866 0.590707
1058 4 0.799734 0.121682 0.588174
1059 4 0.858238 0.159053 0.598117
1099 12 0.646424 0.0129129 0.540963
1100 4 0.689964 0.00215638 0.54629
1129 12 0.539182 0.33023 0.542721
1130 4 0.505747 0.347122 0.552769
1131 4 0.575163 0.31846 0.552573
1165 12 0.752427 0.346096 0.564359
1166 4 0.76947 0.386656 0.57077
1167 4 0.774438 0.311245 0.572612
1258 12 0.705221 0.485035 0.566407
1260 4 0.676265 0.46736 0.577851
1339 12 0.563949 0.0905906 0.516083
1340 4 0.518924 0.0759521 0.517225
1341 4 0.588237 0.0599013 0.525427
1354 12 0.69472 0.113714 0.517773
1355 4 0.66681 0.081976 0.52534
1356 4 0.704499 0.146497 0.529197
1423 12 0.781157 0.219019 0.503251