ITEM: TIMESTEP
2151
ITEM: NUMBER OF ATOMS
1877
ITEM: BOX BOUNDS pp pp pp
-1.0093999999999999e+01 1.0093999999999999e+01
-9.9900000000000002e+00 9.9900000000000002e+00
-3.7863999999999997e+01 2.0736999999999998e+01
ITEM: ATOMS id type element mass x y z vx vy vz ix iy iz
1597 15 C 197 -1.66492 0 -37.7186 0 0 0 0 0 0
1598 15 C 197 -4.1623 -1.44186 -37.7186 0 0 0 0 0 0
1610 15 C 197 -9.15705 -1.44186 -37.7186 0 0 0 0 0 0
1611 15 C 197 -6.65967 -2.88372 -37.7186 0 0 0 0 0 0
1612 15 C 197 -9.15705 -4.32558 -37.7186 0 0 0 0 0 0
1613 15 C 197 -6.65967 0 -37.7186 0 0 0 0 0 0
1615 15 C 197 -4.99475 0 -35.364 0 0 0 0 0 0
1616 15 C 197 -7.49213 -1.44186 -35.364 0 0 0 0 0 0
1628 15 C 197 -9.98951 -2.88372 -35.364 0 0 0 0 0 0
1629 15 C 197 -9.98951 0 -35.364 0 0 0 0 0 0
1630 15 C 197 -8.32459 0 -33.0095 0 0 0 0 0 0
1674 15 C 197 -4.1623 -4.32558 -37.7186 0 0 0 0 0 0
1675 15 C 197 -1.66492 -5.76745 -37.7186 0 0 0 0 0 0
1676 15 C 197 -4.1623 -7.20931 -37.7186 0 0 0 0 0 0
1677 15 C 197 -1.66492 -2.88372 -37.7186 0 0 0 0 0 0
1678 15 C 197 -2.49738 -1.44186 -35.364 0 0 0 0 0 0
1679 15 C 197 -1.77636e-15 -2.88372 -35.364 0 0 0 0 0 0
1680 15 C 197 -2.49738 -4.32558 -35.364 0 0 0 0 0 0
1684 15 C 197 -0.832459 -1.44186 -33.0095 0 0 0 0 0 0
1696 15 C 197 -9.15705 -7.20931 -37.7186 0 0 0 0 0 0
1697 15 C 197 -6.65967 -8.65117 -37.7186 0 0 0 0 0 0
1698 15 C 197 -6.65967 -5.76745 -37.7186 0 0 0 0 0 0
1699 15 C 197 -7.49213 -4.32558 -35.364 0 0 0 0 0 0
1700 15 C 197 -4.99475 -5.76745 -35.364 0 0 0 0 0 0
1701 15 C 197 -7.49213 -7.20931 -35.364 0 0 0 0 0 0
1702 15 C 197 -4.99475 -2.88372 -35.364 0 0 0 0 0 0
1703 15 C 197 -5.82721 -1.44186 -33.0095 0 0 0 0 0 0
1704 15 C 197 -3.32984 -2.88372 -33.0095 0 0 0 0 0 0
1705 15 C 197 -5.82721 -4.32558 -33.0095 0 0 0 0 0 0
1706 15 C 197 -3.32984 0 -33.0095 0 0 0 0 0 0
1708 15 C 197 -1.66492 0 -30.6549 0 0 0 0 0 0
1709 15 C 197 -4.1623 -1.44186 -30.6549 0 0 0 0 0 0
1719 15 C 197 -9.98951 -8.65117 -35.364 0 0 0 0 0 0
1720 15 C 197 -9.98951 -5.76745 -35.364 0 0 0 0 0 0
1721 15 C 197 -8.32459 -5.76745 -33.0095 0 0 0 0 0 0
1722 15 C 197 -8.32459 -2.88372 -33.0095 0 0 0 0 0 0
1723 15 C 197 -9.15705 -1.44186 -30.6549 0 0 0 0 0 0
1724 15 C 197 -6.65967 -2.88372 -30.6549 0 0 0 0 0 0
1725 15 C 197 -9.15705 -4.32558 -30.6549 0 0 0 0 0 0
1726 15 C 197 -6.65967 0 -30.6549 0 0 0 0 0 0
1770 15 C 197 -1.66492 -8.65117 -37.7186 0 0 0 0 0 0
1771 15 C 197 -2.49738 -7.20931 -35.364 0 0 0 0 0 0
1772 15 C 197 -1.77636e-15 -8.65117 -35.364 0 0 0 0 0 0
1773 15 C 197 -1.77636e-15 -5.76745 -35.364 0 0 0 0 0 0
1774 15 C 197 -0.832459 -4.32558 -33.0095 0 0 0 0 0 0
1776 15 C 197 -0.832459 -7.20931 -33.0095 0 0 0 0 0 0
1790 15 C 197 -4.99475 -8.65117 -35.364 0 0 0 0 0 0
1791 15 C 197 -5.82721 -7.20931 -33.0095 0 0 0 0 0 0
1792 15 C 197 -3.32984 -8.65117 -33.0095 0 0 0 0 0 0
1793 15 C 197 -3.32984 -5.76745 -33.0095 0 0 0 0 0 0
1794 15 C 197 -4.1623 -4.32558 -30.6549 0 0 0 0 0 0
1795 15 C 197 -1.66492 -5.76745 -30.6549 0 0 0 0 0 0
1796 15 C 197 -4.1623 -7.20931 -30.6549 0 0 0 0 0 0
1797 15 C 197 -1.66492 -2.88372 -30.6549 0 0 0 0 0 0
1806 15 C 197 -8.32459 -8.65117 -33.0095 0 0 0 0 0 0
1807 15 C 197 -9.15705 -7.20931 -30.6549 0 0 0 0 0 0
1808 15 C 197 -6.65967 -8.65117 -30.6549 0 0 0 0 0 0
1809 15 C 197 -6.65967 -5.76745 -30.6549 0 0 0 0 0 0
1854 15 C 197 -1.66492 -8.65117 -30.6549 0 0 0 0 0 0
1647 15 C 197 8.32459 0 -37.7186 0 0 0 0 0 0
1648 15 C 197 5.82721 -1.44186 -37.7186 0 0 0 0 0 0
1656 15 C 197 0.832459 -1.44186 -37.7186 0 0 0 0 0 0
1657 15 C 197 3.32984 -2.88372 -37.7186 0 0 0 0 0 0
1658 15 C 197 0.832459 -4.32558 -37.7186 0 0 0 0 0 0
1659 15 C 197 3.32984 0 -37.7186 0 0 0 0 0 0
1661 15 C 197 4.99475 0 -35.364 0 0 0 0 0 0
1662 15 C 197 2.49738 -1.44186 -35.364 0 0 0 0 0 0
1681 15 C 197 0 0 -35.364 0 0 0 0 0 0
1683 15 C 197 1.66492 0 -33.0095 0 0 0 0 0 0
1739 15 C 197 5.82721 -4.32558 -37.7186 0 0 0 0 0 0
1740 15 C 197 8.32459 -5.76745 -37.7186 0 0 0 0 0 0
1741 15 C 197 5.82721 -7.20931 -37.7186 0 0 0 0 0 0
1742 15 C 197 8.32459 -2.88372 -37.7186 0 0 0 0 0 0
1743 15 C 197 7.49213 -1.44186 -35.364 0 0 0 0 0 0
1744 15 C 197 9.98951 -2.88372 -35.364 0 0 0 0 0 0
1745 15 C 197 7.49213 -4.32558 -35.364 0 0 0 0 0 0
1746 15 C 197 9.98951 0 -35.364 0 0 0 0 0 0
1748 15 C 197 9.15705 -1.44186 -33.0095 0 0 0 0 0 0
1749 15 C 197 0.832459 -7.20931 -37.7186 0 0 0 0 0 0
1750 15 C 197 3.32984 -8.65117 -37.7186 0 0 0 0 0 0
1751 15 C 197 3.32984 -5.76745 -37.7186 0 0 0 0 0 0
1752 15 C 197 2.49738 -4.32558 -35.364 0 0 0 0 0 0
1753 15 C 197 4.99475 -5.76745 -35.364 0 0 0 0 0 0
1754 15 C 197 2.49738 -7.20931 -35.364 0 0 0 0 0 0
1755 15 C 197 4.99475 -2.88372 -35.364 0 0 0 0 0 0
1756 15 C 197 4.1623 -1.44186 -33.0095 0 0 0 0 0 0
1757 15 C 197 6.65967 -2.88372 -33.0095 0 0 0 0 0 0
1758 15 C 197 4.1623 -4.32558 -33.0095 0 0 0 0 0 0
1759 15 C 197 6.65967 0 -33.0095 0 0 0 0 0 0
1761 15 C 197 8.32459 0 -30.6549 0 0 0 0 0 0
1762 15 C 197 5.82721 -1.44186 -30.6549 0 0 0 0 0 0
1775 15 C 197 1.66492 -5.76745 -33.0095 0 0 0 0 0 0
1777 15 C 197 1.66492 -2.88372 -33.0095 0 0 0 0 0 0
1778 15 C 197 0.832459 -1.44186 -30.6549 0 0 0 0 0 0
1779 15 C 197 3.32984 -2.88372 -30.6549 0 0 0 0 0 0
1780 15 C 197 0.832459 -4.32558 -30.6549 0 0 0 0 0 0
1781 15 C 197 3.32984 0 -30.6549 0 0 0 0 0 0
1822 15 C 197 8.32459 -8.65117 -37.7186 0 0 0 0 0 0
1823 15 C 197 7.49213 -7.20931 -35.364 0 0 0 0 0 0
1824 15 C 197 9.98951 -8.65117 -35.364 0 0 0 0 0 0
1825 15 C 197 9.98951 -5.76745 -35.364 0 0 0 0 0 0
1826 15 C 197 9.15705 -4.32558 -33.0095 0 0 0 0 0 0
1827 15 C 197 9.15705 -7.20931 -33.0095 0 0 0 0 0 0
1828 15 C 197 4.99475 -8.65117 -35.364 0 0 0 0 0 0
1829 15 C 197 4.1623 -7.20931 -33.0095 0 0 0 0 0 0
1830 15 C 197 6.65967 -8.65117 -33.0095 0 0 0 0 0 0
1831 15 C 197 6.65967 -5.76745 -33.0095 0 0 0 0 0 0
1832 15 C 197 5.82721 -4.32558 -30.6549 0 0 0 0 0 0
1833 15 C 197 8.32459 -5.76745 -30.6549 0 0 0 0 0 0
1834 15 C 197 5.82721 -7.20931 -30.6549 0 0 0 0 0 0
1835 15 C 197 8.32459 -2.88372 -30.6549 0 0 0 0 0 0
1842 15 C 197 1.66492 -8.65117 -33.0095 0 0 0 0 0 0
1843 15 C 197 0.832459 -7.20931 -30.6549 0 0 0 0 0 0
1844 15 C 197 3.32984 -8.65117 -30.6549 0 0 0 0 0 0
1845 15 C 197 3.32984 -5.76745 -30.6549 0 0 0 0 0 0
1867 15 C 197 8.32459 -8.65117 -30.6549 0 0 0 0 0 0
1552 15 C 197 -6.65967 8.65117 -37.7186 0 0 0 0 0 0
1553 15 C 197 -9.15705 7.20931 -37.7186 0 0 0 0 0 0
1554 15 C 197 -9.98951 8.65117 -35.364 0 0 0 0 0 0
1557 15 C 197 -4.1623 7.20931 -37.7186 0 0 0 0 0 0
1558 15 C 197 -1.66492 5.76745 -37.7186 0 0 0 0 0 0
1559 15 C 197 -4.1623 4.32558 -37.7186 0 0 0 0 0 0
1560 15 C 197 -1.66492 8.65117 -37.7186 0 0 0 0 0 0
1561 15 C 197 -1.77636e-15 8.65117 -35.364 0 0 0 0 0 0
1562 15 C 197 -2.49738 7.20931 -35.364 0 0 0 0 0 0
1563 15 C 197 -9.15705 4.32558 -37.7186 0 0 0 0 0 0
1564 15 C 197 -6.65967 2.88372 -37.7186 0 0 0 0 0 0
1565 15 C 197 -9.15705 1.44186 -37.7186 0 0 0 0 0 0
1566 15 C 197 -6.65967 5.76745 -37.7186 0 0 0 0 0 0
1567 15 C 197 -7.49213 7.20931 -35.364 0 0 0 0 0 0
1568 15 C 197 -4.99475 5.76745 -35.364 0 0 0 0 0 0
1569 15 C 197 -7.49213 4.32558 -35.364 0 0 0 0 0 0
1570 15 C 197 -4.99475 8.65117 -35.364 0 0 0 0 0 0
1571 15 C 197 -3.32984 8.65117 -33.0095 0 0 0 0 0 0
1572 15 C 197 -5.82721 7.20931 -33.0095 0 0 0 0 0 0
1573 15 C 197 -9.98951 2.88372 -35.364 0 0 0 0 0 0
1574 15 C 197 -9.98951 5.76745 -35.364 0 0 0 0 0 0
1575 15 C 197 -8.32459 5.76745 -33.0095 0 0 0 0 0 0
1576 15 C 197 -8.32459 8.65117 -33.0095 0 0 0 0 0 0
1577 15 C 197 -6.65967 8.65117 -30.6549 0 0 0 0 0 0
1578 15 C 197 -9.15705 7.20931 -30.6549 0 0 0 0 0 0
1596 15 C 197 -4.1623 1.44186 -37.7186 0 0 0 0 0 0
1599 15 C 197 -1.66492 2.88372 -37.7186 0 0 0 0 0 0
1600 15 C 197 -2.49738 4.32558 -35.364 0 0 0 0 0 0
1601 15 C 197 -1.77636e-15 2.88372 -35.364 0 0 0 0 0 0
1602 15 C 197 -2.49738 1.44186 -35.364 0 0 0 0 0 0
1603 15 C 197 -1.77636e-15 5.76745 -35.364 0 0 0 0 0 0
1604 15 C 197 -0.832459 7.20931 -33.0095 0 0 0 0 0 0
1606 15 C 197 -0.832459 4.32558 -33.0095 0 0 0 0 0 0
1614 15 C 197 -7.49213 1.44186 -35.364 0 0 0 0 0 0
1617 15 C 197 -4.99475 2.88372 -35.364 0 0 0 0 0 0
1618 15 C 197 -5.82721 4.32558 -33.0095 0 0 0 0 0 0
1619 15 C 197 -3.32984 2.88372 -33.0095 0 0 0 0 0 0
1620 15 C 197 -5.82721 1.44186 -33.0095 0 0 0 0 0 0
1621 15 C 197 -3.32984 5.76745 -33.0095 0 0 0 0 0 0
1622 15 C 197 -4.1623 7.20931 -30.6549 0 0 0 0 0 0
1623 15 C 197 -1.66492 5.76745 -30.6549 0 0 0 0 0 0
1624 15 C 197 -4.1623 4.32558 -30.6549 0 0 0 0 0 0
1625 15 C 197 -1.66492 8.65117 -30.6549 0 0 0 0 0 0
1631 15 C 197 -8.32459 2.88372 -33.0095 0 0 0 0 0 0
1632 15 C 197 -9.15705 4.32558 -30.6549 0 0 0 0 0 0
1633 15 C 197 -6.65967 2.88372 -30.6549 0 0 0 0 0 0
1634 15 C 197 -9.15705 1.44186 -30.6549 0 0 0 0 0 0
1635 15 C 197 -6.65967 5.76745 -30.6549 0 0 0 0 0 0
1682 15 C 197 -0.832459 1.44186 -33.0095 0 0 0 0 0 0
1707 15 C 197 -4.1623 1.44186 -30.6549 0 0 0 0 0 0
1710 15 C 197 -1.66492 2.88372 -30.6549 0 0 0 0 0 0
1555 15 C 197 3.32984 8.65117 -37.7186 0 0 0 0 0 0
1556 15 C 197 0.832459 7.20931 -37.7186 0 0 0 0 0 0
1580 15 C 197 5.82721 7.20931 -37.7186 0 0 0 0 0 0
1581 15 C 197 8.32459 5.76745 -37.7186 0 0 0 0 0 0
1582 15 C 197 5.82721 4.32558 -37.7186 0 0 0 0 0 0
1583 15 C 197 8.32459 8.65117 -37.7186 0 0 0 0 0 0
1584 15 C 197 9.98951 8.65117 -35.364 0 0 0 0 0 0
1585 15 C 197 7.49213 7.20931 -35.364 0 0 0 0 0 0
1586 15 C 197 0.832459 4.32558 -37.7186 0 0 0 0 0 0
1587 15 C 197 3.32984 2.88372 -37.7186 0 0 0 0 0 0
1588 15 C 197 0.832459 1.44186 -37.7186 0 0 0 0 0 0
1589 15 C 197 3.32984 5.76745 -37.7186 0 0 0 0 0 0
1590 15 C 197 2.49738 7.20931 -35.364 0 0 0 0 0 0
1591 15 C 197 4.99475 5.76745 -35.364 0 0 0 0 0 0
1592 15 C 197 2.49738 4.32558 -35.364 0 0 0 0 0 0
1593 15 C 197 4.99475 8.65117 -35.364 0 0 0 0 0 0
1594 15 C 197 6.65967 8.65117 -33.0095 0 0 0 0 0 0
1595 15 C 197 4.1623 7.20931 -33.0095 0 0 0 0 0 0
1605 15 C 197 1.66492 5.76745 -33.0095 0 0 0 0 0 0
1607 15 C 197 1.66492 8.65117 -33.0095 0 0 0 0 0 0
1608 15 C 197 3.32984 8.65117 -30.6549 0 0 0 0 0 0
1609 15 C 197 0.832459 7.20931 -30.6549 0 0 0 0 0 0
1646 15 C 197 5.82721 1.44186 -37.7186 0 0 0 0 0 0
1649 15 C 197 8.32459 2.88372 -37.7186 0 0 0 0 0 0
1650 15 C 197 7.49213 4.32558 -35.364 0 0 0 0 0 0
1651 15 C 197 9.98951 2.88372 -35.364 0 0 0 0 0 0
1652 15 C 197 7.49213 1.44186 -35.364 0 0 0 0 0 0
1653 15 C 197 9.98951 5.76745 -35.364 0 0 0 0 0 0
1654 15 C 197 9.15705 7.20931 -33.0095 0 0 0 0 0 0
1655 15 C 197 9.15705 4.32558 -33.0095 0 0 0 0 0 0
1660 15 C 197 2.49738 1.44186 -35.364 0 0 0 0 0 0
1663 15 C 197 4.99475 2.88372 -35.364 0 0 0 0 0 0
1664 15 C 197 4.1623 4.32558 -33.0095 0 0 0 0 0 0
1665 15 C 197 6.65967 2.88372 -33.0095 0 0 0 0 0 0
1666 15 C 197 4.1623 1.44186 -33.0095 0 0 0 0 0 0
1667 15 C 197 6.65967 5.76745 -33.0095 0 0 0 0 0 0
1668 15 C 197 5.82721 7.20931 -30.6549 0 0 0 0 0 0
1669 15 C 197 8.32459 5.76745 -30.6549 0 0 0 0 0 0
1670 15 C 197 5.82721 4.32558 -30.6549 0 0 0 0 0 0
1671 15 C 197 8.32459 8.65117 -30.6549 0 0 0 0 0 0
1685 15 C 197 1.66492 2.88372 -33.0095 0 0 0 0 0 0
1686 15 C 197 0.832459 4.32558 -30.6549 0 0 0 0 0 0
1687 15 C 197 3.32984 2.88372 -30.6549 0 0 0 0 0 0
1688 15 C 197 0.832459 1.44186 -30.6549 0 0 0 0 0 0
1689 15 C 197 3.32984 5.76745 -30.6549 0 0 0 0 0 0
1747 15 C 197 9.15705 1.44186 -33.0095 0 0 0 0 0 0
1760 15 C 197 5.82721 1.44186 -30.6549 0 0 0 0 0 0
1763 15 C 197 8.32459 2.88372 -30.6549 0 0 0 0 0 0
1728 15 C 197 -4.99475 0 -28.3004 0 0 0 0 0 0
1729 15 C 197 -7.49213 -1.44186 -28.3004 0 0 0 0 0 0
1735 15 C 197 -9.98951 -2.88372 -28.3004 0 0 0 0 0 0
1736 15 C 197 -9.98951 0 -28.3004 0 0 0 0 0 0
1737 15 C 197 -8.32459 0 -25.9458 0 0 0 0 0 0
1798 15 C 197 -2.49738 -1.44186 -28.3004 0 0 0 0 0 0
1799 15 C 197 -1.77636e-15 -2.88372 -28.3004 0 0 0 0 0 0
1800 15 C 197 -2.49738 -4.32558 -28.3004 0 0 0 0 0 0
1804 15 C 197 -0.832459 -1.44186 -25.9458 0 0 0 0 0 0
1810 15 C 197 -7.49213 -4.32558 -28.3004 0 0 0 0 0 0
1811 15 C 197 -4.99475 -5.76745 -28.3004 0 0 0 0 0 0
1812 15 C 197 -7.49213 -7.20931 -28.3004 0 0 0 0 0 0
1813 15 C 197 -4.99475 -2.88372 -28.3004 0 0 0 0 0 0
1814 15 C 197 -5.82721 -1.44186 -25.9458 0 0 0 0 0 0
1815 15 C 197 -3.32984 -2.88372 -25.9458 0 0 0 0 0 0
1816 15 C 197 -5.82721 -4.32558 -25.9458 0 0 0 0 0 0
1817 15 C 197 -3.32984 0 -25.9458 0 0 0 0 0 0
1818 15 C 197 -9.98951 -8.65117 -28.3004 0 0 0 0 0 0
1819 15 C 197 -9.98951 -5.76745 -28.3004 0 0 0 0 0 0
1820 15 C 197 -8.32459 -5.76745 -25.9458 0 0 0 0 0 0
1821 15 C 197 -8.32459 -2.88372 -25.9458 0 0 0 0 0 0
1855 15 C 197 -2.49738 -7.20931 -28.3004 0 0 0 0 0 0
1856 15 C 197 -8.88178e-16 -8.65117 -28.3004 0 0 0 0 0 0
1857 15 C 197 -8.88178e-16 -5.76745 -28.3004 0 0 0 0 0 0
1858 15 C 197 -0.832459 -4.32558 -25.9458 0 0 0 0 0 0
1860 15 C 197 -0.832459 -7.20931 -25.9458 0 0 0 0 0 0
1862 15 C 197 -4.99475 -8.65117 -28.3004 0 0 0 0 0 0
1863 15 C 197 -5.82721 -7.20931 -25.9458 0 0 0 0 0 0
1864 15 C 197 -3.32984 -8.65117 -25.9458 0 0 0 0 0 0
1865 15 C 197 -3.32984 -5.76745 -25.9458 0 0 0 0 0 0
1866 15 C 197 -8.32459 -8.65117 -25.9458 0 0 0 0 0 0
11 1 C 1.008 -1.61059 -3.81431 -23.4167 0 0 0 0 0 0
26 11 C 15.999 -3.699 -1.71087 -23.2715 0 0 0 0 0 0
27 11 C 15.999 -1.74246 -0.646501 -23.3016 0 0 0 0 0 0
1783 15 C 197 4.99475 0 -28.3004 0 0 0 0 0 0
1784 15 C 197 2.49738 -1.44186 -28.3004 0 0 0 0 0 0
1801 15 C 197 0 0 -28.3004 0 0 0 0 0 0
1803 15 C 197 1.66492 0 -25.9458 0 0 0 0 0 0
1836 15 C 197 7.49213 -1.44186 -28.3004 0 0 0 0 0 0
1837 15 C 197 9.98951 -2.88372 -28.3004 0 0 0 0 0 0
1838 15 C 197 7.49213 -4.32558 -28.3004 0 0 0 0 0 0
1839 15 C 197 9.98951 0 -28.3004 0 0 0 0 0 0
1841 15 C 197 9.15705 -1.44186 -25.9458 0 0 0 0 0 0
1846 15 C 197 2.49738 -4.32558 -28.3004 0 0 0 0 0 0
1847 15 C 197 4.99475 -5.76745 -28.3004 0 0 0 0 0 0
1848 15 C 197 2.49738 -7.20931 -28.3004 0 0 0 0 0 0
1849 15 C 197 4.99475 -2.88372 -28.3004 0 0 0 0 0 0
1850 15 C 197 4.1623 -1.44186 -25.9458 0 0 0 0 0 0
1851 15 C 197 6.65967 -2.88372 -25.9458 0 0 0 0 0 0
1852 15 C 197 4.1623 -4.32558 -25.9458 0 0 0 0 0 0
1853 15 C 197 6.65967 0 -25.9458 0 0 0 0 0 0
1859 15 C 197 1.66492 -5.76745 -25.9458 0 0 0 0 0 0
1861 15 C 197 1.66492 -2.88372 -25.9458 0 0 0 0 0 0
1868 15 C 197 7.49213 -7.20931 -28.3004 0 0 0 0 0 0
1869 15 C 197 9.98951 -8.65117 -28.3004 0 0 0 0 0 0
1870 15 C 197 9.98951 -5.76745 -28.3004 0 0 0 0 0 0
1871 15 C 197 9.15705 -4.32558 -25.9458 0 0 0 0 0 0
1872 15 C 197 9.15705 -7.20931 -25.9458 0 0 0 0 0 0
1873 15 C 197 4.99475 -8.65117 -28.3004 0 0 0 0 0 0
1874 15 C 197 4.1623 -7.20931 -25.9458 0 0 0 0 0 0
1875 15 C 197 6.65967 -8.65117 -25.9458 0 0 0 0 0 0
1876 15 C 197 6.65967 -5.76745 -25.9458 0 0 0 0 0 0
1877 15 C 197 1.66492 -8.65117 -25.9458 0 0 0 0 0 0
15 1 C 1.008 0.178663 -5.56329 -23.6333 0 0 0 0 0 0
14 1 C 1.008 0.803341 -3.87472 -23.6996 0 0 0 0 0 0
1579 15 C 197 -9.98951 8.65117 -28.3004 0 0 0 0 0 0
1626 15 C 197 -1.77636e-15 8.65117 -28.3004 0 0 0 0 0 0
1627 15 C 197 -2.49738 7.20931 -28.3004 0 0 0 0 0 0
1636 15 C 197 -7.49213 7.20931 -28.3004 0 0 0 0 0 0
1637 15 C 197 -4.99475 5.76745 -28.3004 0 0 0 0 0 0
1638 15 C 197 -7.49213 4.32558 -28.3004 0 0 0 0 0 0
1639 15 C 197 -4.99475 8.65117 -28.3004 0 0 0 0 0 0
1640 15 C 197 -3.32984 8.65117 -25.9458 0 0 0 0 0 0
1641 15 C 197 -5.82721 7.20931 -25.9458 0 0 0 0 0 0
1642 15 C 197 -9.98951 2.88372 -28.3004 0 0 0 0 0 0
1643 15 C 197 -9.98951 5.76745 -28.3004 0 0 0 0 0 0
1644 15 C 197 -8.32459 5.76745 -25.9458 0 0 0 0 0 0
1645 15 C 197 -8.32459 8.65117 -25.9458 0 0 0 0 0 0
1711 15 C 197 -2.49738 4.32558 -28.3004 0 0 0 0 0 0
1712 15 C 197 -1.77636e-15 2.88372 -28.3004 0 0 0 0 0 0
1713 15 C 197 -2.49738 1.44186 -28.3004 0 0 0 0 0 0
1714 15 C 197 -1.77636e-15 5.76745 -28.3004 0 0 0 0 0 0
1715 15 C 197 -0.832459 7.20931 -25.9458 0 0 0 0 0 0
1717 15 C 197 -0.832459 4.32558 -25.9458 0 0 0 0 0 0
1727 15 C 197 -7.49213 1.44186 -28.3004 0 0 0 0 0 0
1730 15 C 197 -4.99475 2.88372 -28.3004 0 0 0 0 0 0
1731 15 C 197 -5.82721 4.32558 -25.9458 0 0 0 0 0 0
1732 15 C 197 -3.32984 2.88372 -25.9458 0 0 0 0 0 0
1733 15 C 197 -5.82721 1.44186 -25.9458 0 0 0 0 0 0
1734 15 C 197 -3.32984 5.76745 -25.9458 0 0 0 0 0 0
1738 15 C 197 -8.32459 2.88372 -25.9458 0 0 0 0 0 0
1802 15 C 197 -0.832459 1.44186 -25.9458 0 0 0 0 0 0
1672 15 C 197 9.98951 8.65117 -28.3004 0 0 0 0 0 0
1673 15 C 197 7.49213 7.20931 -28.3004 0 0 0 0 0 0
1690 15 C 197 2.49738 7.20931 -28.3004 0 0 0 0 0 0
1691 15 C 197 4.99475 5.76745 -28.3004 0 0 0 0 0 0
1692 15 C 197 2.49738 4.32558 -28.3004 0 0 0 0 0 0
1693 15 C 197 4.99475 8.65117 -28.3004 0 0 0 0 0 0
1694 15 C 197 6.65967 8.65117 -25.9458 0 0 0 0 0 0
1695 15 C 197 4.1623 7.20931 -25.9458 0 0 0 0 0 0
1716 15 C 197 1.66492 5.76745 -25.9458 0 0 0 0 0 0
1718 15 C 197 1.66492 8.65117 -25.9458 0 0 0 0 0 0
1764 15 C 197 7.49213 4.32558 -28.3004 0 0 0 0 0 0
1765 15 C 197 9.98951 2.88372 -28.3004 0 0 0 0 0 0
1766 15 C 197 7.49213 1.44186 -28.3004 0 0 0 0 0 0
1767 15 C 197 9.98951 5.76745 -28.3004 0 0 0 0 0 0
1768 15 C 197 9.15705 7.20931 -25.9458 0 0 0 0 0 0
1769 15 C 197 9.15705 4.32558 -25.9458 0 0 0 0 0 0
1782 15 C 197 2.49738 1.44186 -28.3004 0 0 0 0 0 0
1785 15 C 197 4.99475 2.88372 -28.3004 0 0 0 0 0 0
1786 15 C 197 4.1623 4.32558 -25.9458 0 0 0 0 0 0
1787 15 C 197 6.65967 2.88372 -25.9458 0 0 0 0 0 0
1788 15 C 197 4.1623 1.44186 -25.9458 0 0 0 0 0 0
1789 15 C 197 6.65967 5.76745 -25.9458 0 0 0 0 0 0
1805 15 C 197 1.66492 2.88372 -25.9458 0 0 0 0 0 0
1840 15 C 197 9.15705 1.44186 -25.9458 0 0 0 0 0 0
1 10 C 14.007 -3.32485 -2.86612 -20.9075 0 0 0 0 0 0
2 3 C 1.008 -4.00243 -2.85484 -21.7091 0 0 0 0 0 0
3 3 C 1.008 -3.77399 -2.44935 -20.0554 0 0 0 0 0 0
4 3 C 1.008 -3.02638 -3.8418 -20.6689 0 0 0 0 0 0
10 8 C 12.011 -1.01472 -4.10764 -22.5194 0 0 0 0 0 0
12 1 C 1.008 -1.56395 -4.93169 -22.0146 0 0 0 0 0 0
116 4 C 1.008 -8.11448 -8.62848 -16.2843 0 0 0 0 0 0
160 12 C 15.999 -4.90315 -8.05712 -16.2615 0 0 0 0 0 0
161 4 C 1.008 -4.03681 -7.61157 -16.3235 0 0 0 0 0 0
162 4 C 1.008 -5.51394 -7.29466 -16.1819 0 0 0 0 0 0
493 12 C 15.999 -6.99709 -9.47319 -17.3637 0 0 0 0 0 0
494 4 C 1.008 -6.18041 -8.99777 -17.1036 0 0 0 0 0 0
919 12 C 15.999 -9.45898 -9.70004 -18.5748 0 0 0 0 0 0
920 4 C 1.008 -8.55089 -9.68573 -18.1999 0 0 0 0 0 0
921 4 C 1.008 -9.43836 -8.92971 -19.1491 0 0 0 0 0 0
937 12 C 15.999 -2.83191 -5.25137 -19.5943 0 0 0 0 0 0
938 4 C 1.008 -2.24458 -5.97513 -19.2977 0 0 0 0 0 0
939 4 C 1.008 -3.4558 -5.22003 -18.8381 0 0 0 0 0 0
1046 4 C 1.008 -8.45968 -2.83569 -15.9817 0 0 0 0 0 0
1144 12 C 15.999 -1.333 -7.24551 -18.3878 0 0 0 0 0 0
1145 4 C 1.008 -1.45083 -8.20168 -18.4412 0 0 0 0 0 0
1146 4 C 1.008 -1.63256 -7.07564 -17.4657 0 0 0 0 0 0
1330 12 C 15.999 -4.39285 -2.4199 -18.3878 0 0 0 0 0 0
1331 4 C 1.008 -4.74376 -1.87988 -17.669 0 0 0 0 0 0
1332 4 C 1.008 -4.46167 -3.31427 -17.9941 0 0 0 0 0 0
1387 12 C 15.999 -6.81742 -6.05448 -16.2616 0 0 0 0 0 0
1388 4 C 1.008 -7.26768 -5.20072 -16.077 0 0 0 0 0 0
1389 4 C 1.008 -7.54924 -6.6783 -16.0801 0 0 0 0 0 0
1447 12 C 15.999 -4.47901 -4.9917 -17.3621 0 0 0 0 0 0
1448 4 C 1.008 -5.36491 -5.34616 -17.1382 0 0 0 0 0 0
1449 4 C 1.008 -4.09379 -4.90829 -16.4681 0 0 0 0 0 0
1031 4 C 1.008 9.78016 -1.06481 -16.0476 0 0 0 -1 0 0
5 7 C 12.011 -2.20324 -2.03747 -21.4112 0 0 0 0 0 0
6 2 C 1.008 -2.04379 -1.22165 -20.7208 0 0 0 0 0 0
7 8 C 12.011 -0.909033 -2.89039 -21.5685 0 0 0 0 0 0
8 1 C 1.008 -0.572882 -3.23138 -20.5652 0 0 0 0 0 0
25 6 C 12.011 -2.58092 -1.41291 -22.7686 0 0 0 0 0 0
13 8 C 12.011 0.33466 -4.63448 -23.0367 0 0 0 0 0 0
16 9 C 14.007 1.21126 -4.95674 -21.8632 0 0 0 0 0 0
17 3 C 1.008 0.939884 -5.66264 -21.2034 0 0 0 0 0 0
18 5 C 12.011 2.33543 -4.33522 -21.5334 0 0 0 0 0 0
19 9 C 14.007 2.94763 -4.72109 -20.4345 0 0 0 0 0 0
20 3 C 1.008 3.77787 -4.23038 -20.1384 0 0 0 0 0 0
21 3 C 1.008 2.49409 -5.42893 -19.8759 0 0 0 0 0 0
22 9 C 14.007 2.86972 -3.33743 -22.1981 0 0 0 0 0 0
23 3 C 1.008 2.36219 -2.93847 -22.9471 0 0 0 0 0 0
24 3 C 1.008 3.66594 -2.90943 -21.7787 0 0 0 0 0 0
385 12 C 15.999 8.12145 -0.315511 -16.3426 0 0 0 0 0 0
710 4 C 1.008 8.09291 -5.03003 -16.3707 0 0 0 0 0 0
871 12 C 15.999 6.69104 -2.38396 -17.7293 0 0 0 0 0 0
872 4 C 1.008 7.13306 -1.58418 -17.3813 0 0 0 0 0 0
873 4 C 1.008 7.00951 -3.03916 -17.078 0 0 0 0 0 0
1168 12 C 15.999 5.23378 -3.13301 -19.9849 0 0 0 0 0 0
1169 4 C 1.008 6.10927 -3.19484 -20.3822 0 0 0 0 0 0
1170 4 C 1.008 5.50422 -2.79583 -19.0985 0 0 0 0 0 0
1189 12 C 15.999 1.22947 -6.61412 -19.2771 0 0 0 0 0 0
1190 4 C 1.008 1.68225 -7.20464 -18.6286 0 0 0 0 0 0
1191 4 C 1.008 0.306071 -6.75433 -18.9819 0 0 0 0 0 0
1470 4 C 1.008 7.42825 -9.49548 -17.0615 0 0 0 0 0 0
1486 12 C 15.999 2.28684 -8.2149 -17.2916 0 0 0 0 0 0
1487 4 C 1.008 1.92049 -8.76451 -16.5757 0 0 0 0 0 0
1488 4 C 1.008 3.23028 -8.23968 -17.0328 0 0 0 0 0 0
9 1 C 1.008 -0.123949 -2.20479 -21.9647 0 0 0 0 0 0
517 12 C 15.999 4.7218 -8.5057 -15.9915 0 0 0 0 0 0
519 4 C 1.008 5.66456 -8.24217 -15.9568 0 0 0 0 0 0
495 4 C 1.008 -6.66791 9.58219 -17.2951 0 0 0 0 -1 0
40 12 C 15.999 -3.21464 7.7879 -17.269 0 0 0 0 0 0
41 4 C 1.008 -2.69654 7.07146 -17.6405 0 0 0 0 0 0
42 4 C 1.008 -2.58322 8.19084 -16.6375 0 0 0 0 0 0
124 12 C 15.999 -5.93458 8.04044 -16.9502 0 0 0 0 0 0
125 4 C 1.008 -5.86618 7.97489 -15.971 0 0 0 0 0 0
126 4 C 1.008 -4.99013 7.90677 -17.189 0 0 0 0 0 0
895 12 C 15.999 -8.65411 7.58289 -17.1738 0 0 0 0 0 0
896 4 C 1.008 -7.68083 7.6725 -17.2491 0 0 0 0 0 0
897 4 C 1.008 -8.72227 6.97064 -16.4213 0 0 0 0 0 0
1276 12 C 15.999 -8.92016 3.42439 -15.9616 0 0 0 0 0 0
1278 4 C 1.008 -8.04285 3.8475 -15.9211 0 0 0 0 0 0
30 13 C 22.99 9.49797 8.42778 -17.9307 0 0 0 0 0 0
1468 12 C 15.999 7.52533 9.58791 -17.4254 0 0 0 0 -1 0
1469 4 C 1.008 6.85236 9.10955 -16.9066 0 0 0 0 -1 0
349 12 C 15.999 7.68183 4.38388 -18.2628 0 0 0 0 0 0
350 4 C 1.008 7.37894 4.78688 -17.4213 0 0 0 0 0 0
351 4 C 1.008 6.8637 4.41794 -18.7954 0 0 0 0 0 0
386 4 C 1.008 8.42202 0.549396 -16.7082 0 0 0 0 0 0
814 12 C 15.999 5.25666 4.75269 -19.6363 0 0 0 0 0 0
815 4 C 1.008 4.65468 4.01859 -19.7948 0 0 0 0 0 0
816 4 C 1.008 4.70241 5.31549 -19.0439 0 0 0 0 0 0
1042 12 C 15.999 8.75413 6.74238 -19.2752 0 0 0 0 0 0
1043 4 C 1.008 8.61914 5.83099 -18.9492 0 0 0 0 0 0
1044 4 C 1.008 8.21509 6.69715 -20.0952 0 0 0 0 0 0
1159 12 C 15.999 3.66852 6.02943 -17.8446 0 0 0 0 0 0
1160 4 C 1.008 4.05836 5.94264 -16.9597 0 0 0 0 0 0
1161 4 C 1.008 2.97062 6.67592 -17.656 0 0 0 0 0 0
1381 12 C 15.999 8.96869 2.20089 -17.0695 0 0 0 0 0 0
1382 4 C 1.008 9.76153 2.67251 -16.7519 0 0 0 0 0 0
1383 4 C 1.008 8.54004 2.90019 -17.6005 0 0 0 0 0 0
1417 12 C 15.999 6.9709 6.17529 -21.2731 0 0 0 0 0 0
1418 4 C 1.008 6.32791 5.68279 -20.7226 0 0 0 0 0 0
1419 4 C 1.008 6.65166 6.01369 -22.1624 0 0 0 0 0 0
631 12 C 15.999 2.0096 7.65644 -16.044 0 0 0 0 0 0
632 4 C 1.008 1.05316 7.53376 -16.0661 0 0 0 0 0 0
115 12 C 15.999 -8.73866 -8.09752 -15.7453 0 0 0 0 0 0
117 4 C 1.008 -9.46632 -8.74646 -15.6511 0 0 0 0 0 0
1030 12 C 15.999 -9.49819 -1.33401 -15.7967 0 0 0 0 0 0
1032 4 C 1.008 -9.58118 -1.48026 -14.8345 0 0 0 0 0 0
1045 12 C 15.999 -8.09272 -3.6883 -15.6629 0 0 0 0 0 0
1047 4 C 1.008 -8.82436 -3.94165 -15.0605 0 0 0 0 0 0
1426 12 C 15.999 -3.67628 -9.68091 -14.3732 0 0 0 0 1 0
1427 4 C 1.008 -4.22107 -9.23538 -15.0555 0 0 0 0 1 0
154 12 C 15.999 -8.69107 -2.0917 -9.8874 0 0 0 0 0 0
156 4 C 1.008 -8.09807 -2.66305 -9.36572 0 0 0 0 0 0
217 12 C 15.999 -3.74613 -7.94704 -12.1358 0 0 0 0 0 0
218 4 C 1.008 -4.5048 -8.50815 -11.8599 0 0 0 0 0 0
219 4 C 1.008 -3.52752 -8.41857 -12.9628 0 0 0 0 0 0
223 12 C 15.999 -10.0687 -6.96855 -13.6012 0 0 0 0 0 0
224 4 C 1.008 10.0491 -7.74302 -13.0023 0 0 0 -1 0 0
225 4 C 1.008 -9.49067 -7.32986 -14.3068 0 0 0 0 0 0
599 4 C 1.008 -9.8732 -2.99186 -10.8045 0 0 0 0 0 0
640 12 C 15.999 -8.11438 -8.87673 -11.3075 0 0 0 0 0 0
641 4 C 1.008 -8.10902 -8.26251 -10.5422 0 0 0 0 0 0
642 4 C 1.008 -9.06318 -8.85831 -11.5566 0 0 0 0 0 0
667 12 C 15.999 -1.63772 -4.61696 -9.95776 0 0 0 0 0 0
668 4 C 1.008 -0.960884 -4.17827 -10.5127 0 0 0 0 0 0
669 4 C 1.008 -2.3104 -4.83388 -10.6381 0 0 0 0 0 0
817 12 C 15.999 -3.59137 -5.09236 -11.8904 0 0 0 0 0 0
818 4 C 1.008 -3.82402 -6.04412 -11.8715 0 0 0 0 0 0
819 4 C 1.008 -4.36416 -4.65407 -11.4821 0 0 0 0 0 0
967 12 C 15.999 -9.11509 -1.52701 -13.0242 0 0 0 0 0 0
968 4 C 1.008 -9.65453 -0.716459 -12.8981 0 0 0 0 0 0
969 4 C 1.008 -9.58574 -2.15486 -12.4423 0 0 0 0 0 0
1093 12 C 15.999 -5.48208 -2.92381 -15.0961 0 0 0 0 0 0
1094 4 C 1.008 -6.38751 -3.19905 -15.3443 0 0 0 0 0 0
1095 4 C 1.008 -5.6828 -2.37024 -14.3117 0 0 0 0 0 0
1228 12 C 15.999 -3.54763 -4.79669 -14.6861 0 0 0 0 0 0
1229 4 C 1.008 -4.18128 -4.04703 -14.7712 0 0 0 0 0 0
1230 4 C 1.008 -3.47123 -4.84366 -13.7103 0 0 0 0 0 0
1249 12 C 15.999 -5.60955 -9.83458 -11.6385 0 0 0 0 0 0
1250 4 C 1.008 -6.52595 -9.47716 -11.6818 0 0 0 0 0 0
1261 12 C 15.999 -0.801794 -0.73226 -10.1054 0 0 0 0 0 0
1297 12 C 15.999 9.90134 -4.32148 -14.1044 0 0 0 -1 0 0
1298 4 C 1.008 9.82674 -3.94603 -13.2001 0 0 0 -1 0 0
1299 4 C 1.008 10.009 -5.2742 -13.8854 0 0 0 -1 0 0
1435 12 C 15.999 -2.35493 -6.96096 -15.8575 0 0 0 0 0 0
1436 4 C 1.008 -2.01519 -7.46043 -15.1046 0 0 0 0 0 0
1437 4 C 1.008 -2.6598 -6.13226 -15.4226 0 0 0 0 0 0
1438 12 C 15.999 -6.33279 -1.73783 -12.768 0 0 0 0 0 0
1439 4 C 1.008 -7.31343 -1.67639 -12.803 0 0 0 0 0 0
1440 4 C 1.008 -6.18641 -2.34743 -12.0158 0 0 0 0 0 0
1477 12 C 15.999 -5.5063 -3.28729 -10.5599 0 0 0 0 0 0
478 12 C 15.999 -2.68516 -9.17595 -9.83806 0 0 0 0 1 0
479 4 C 1.008 -2.9153 -8.60004 -10.5944 0 0 0 0 1 0
480 4 C 1.008 -2.51213 9.95991 -10.314 0 0 0 0 0 0
155 4 C 1.008 -8.20326 -1.2439 -9.89018 0 0 0 0 0 0
295 12 C 15.999 -7.95941 -7.60416 -8.89693 0 0 0 0 0 0
571 12 C 15.999 -9.76924 -5.52571 -8.6729 0 0 0 0 0 0
572 4 C 1.008 -9.32134 -6.39402 -8.77983 0 0 0 0 0 0
683 4 C 1.008 -1.09633 -5.75494 -8.65269 0 0 0 0 0 0
1127 4 C 1.008 -1.73512 -1.84137 -9.05289 0 0 0 0 0 0
1128 4 C 1.008 -2.0561 -3.2874 -8.78365 0 0 0 0 0 0
1378 12 C 15.999 -7.31781 -4.2338 -8.76836 0 0 0 0 0 0
1379 4 C 1.008 -8.20336 -4.64801 -8.73026 0 0 0 0 0 0
1478 4 C 1.008 -6.20193 -3.71677 -10.018 0 0 0 0 0 0
1479 4 C 1.008 -5.18115 -2.64104 -9.90762 0 0 0 0 0 0
1502 4 C 1.008 -1.29158 -9.13405 -8.64166 0 0 0 0 0 0
1357 12 C 15.999 9.5044 -9.97305 -15.042 0 0 0 -1 0 0
601 12 C 15.999 7.42129 -8.24775 -15.5623 0 0 0 0 0 0
603 4 C 1.008 8.20699 -8.79809 -15.3504 0 0 0 0 0 0
709 12 C 15.999 7.81566 -4.22451 -15.9215 0 0 0 0 0 0
711 4 C 1.008 8.57033 -4.07757 -15.3108 0 0 0 0 0 0
598 12 C 15.999 9.75307 -3.42231 -11.492 0 0 0 -1 0 0
52 12 C 15.999 4.02666 -8.95692 -13.3657 0 0 0 0 0 0
53 4 C 1.008 3.93959 -8.30455 -12.6395 0 0 0 0 0 0
54 4 C 1.008 4.67722 -9.587 -12.9858 0 0 0 0 0 0
205 12 C 15.999 2.27806 -4.70643 -10.8535 0 0 0 0 0 0
206 4 C 1.008 1.54555 -4.11645 -11.1272 0 0 0 0 0 0
207 4 C 1.008 2.05119 -4.83527 -9.90834 0 0 0 0 0 0
253 12 C 15.999 6.97659 -8.10913 -10.7133 0 0 0 0 0 0
254 4 C 1.008 6.82995 -7.55581 -9.91996 0 0 0 0 0 0
255 4 C 1.008 6.30329 -8.79821 -10.5569 0 0 0 0 0 0
310 12 C 15.999 0.117201 -3.00972 -11.3799 0 0 0 0 0 0
311 4 C 1.008 -0.123968 -2.18509 -10.9013 0 0 0 0 0 0
312 4 C 1.008 0.0302557 -2.72158 -12.2961 0 0 0 0 0 0
382 12 C 15.999 7.7243 -4.69967 -10.0048 0 0 0 0 0 0
383 4 C 1.008 6.96747 -4.4881 -10.5845 0 0 0 0 0 0
384 4 C 1.008 7.32329 -5.42512 -9.48018 0 0 0 0 0 0
430 12 C 15.999 5.04797 -4.47228 -11.2881 0 0 0 0 0 0
431 4 C 1.008 4.09838 -4.29689 -11.4416 0 0 0 0 0 0
432 4 C 1.008 5.39797 -4.36466 -12.2077 0 0 0 0 0 0
518 4 C 1.008 4.46379 -8.43775 -15.0494 0 0 0 0 0 0
580 12 C 15.999 6.04502 -4.57214 -13.774 0 0 0 0 0 0
581 4 C 1.008 6.50333 -5.4291 -13.6525 0 0 0 0 0 0
582 4 C 1.008 6.47572 -4.24993 -14.5873 0 0 0 0 0 0
600 4 C 1.008 9.04754 -3.8187 -10.9473 0 0 0 -1 0 0
602 4 C 1.008 7.36354 -7.70916 -14.7465 0 0 0 0 0 0
766 12 C 15.999 9.40192 -8.88733 -11.8141 0 0 0 0 0 0
767 4 C 1.008 8.65959 -8.61335 -11.2363 0 0 0 0 0 0
768 4 C 1.008 9.17333 -9.83895 -11.9068 0 0 0 0 0 0
769 12 C 15.999 3.81463 -7.03627 -11.3483 0 0 0 0 0 0
770 4 C 1.008 3.0523 -6.4307 -11.2617 0 0 0 0 0 0
771 4 C 1.008 4.53504 -6.3819 -11.3662 0 0 0 0 0 0
1162 12 C 15.999 7.37982 -6.88111 -13.1811 0 0 0 0 0 0
1163 4 C 1.008 8.35745 -6.83301 -13.1875 0 0 0 0 0 0
1164 4 C 1.008 7.2153 -7.34206 -12.3306 0 0 0 0 0 0
1177 12 C 15.999 4.49933 -9.16561 -9.74576 0 0 0 0 0 0
1178 4 C 1.008 4.40762 -8.76384 -8.85638 0 0 0 0 0 0
1179 4 C 1.008 4.13944 -8.44962 -10.3093 0 0 0 0 0 0
1450 12 C 15.999 1.87731 -9.79551 -14.9422 0 0 0 0 0 0
1451 4 C 1.008 2.61071 -9.47565 -14.3755 0 0 0 0 0 0
1452 4 C 1.008 1.17486 -9.93882 -14.2739 0 0 0 0 0 0
1480 12 C 15.999 9.56902 -9.76118 -8.74217 0 0 0 0 0 0
324 4 C 1.008 4.97342 -0.594769 -9.37535 0 0 0 0 0 0
573 4 C 1.008 9.70098 -5.5928 -9.31979 0 0 0 -1 0 0
231 4 C 1.008 8.09467 -3.51329 -8.65464 0 0 0 0 0 0
1423 12 C 15.999 6.19756 -6.49107 -8.58731 0 0 0 0 0 0
1507 12 C 15.999 4.50163 -4.32478 -8.59138 0 0 0 0 0 0
1509 4 C 1.008 4.57247 -4.34933 -9.56797 0 0 0 0 0 0
64 12 C 15.999 -6.68763 4.87733 -14.909 0 0 0 0 0 0
65 4 C 1.008 -6.31143 4.11214 -14.4274 0 0 0 0 0 0
373 12 C 15.999 -1.49889 8.95147 -15.435 0 0 0 0 0 0
374 4 C 1.008 -0.863947 9.04602 -14.7034 0 0 0 0 0 0
375 4 C 1.008 -2.2652 9.43817 -15.0676 0 0 0 0 0 0
616 12 C 15.999 -9.21304 5.95826 -14.9203 0 0 0 0 0 0
617 4 C 1.008 -9.49601 5.07396 -15.2337 0 0 0 0 0 0
618 4 C 1.008 -8.28706 5.72317 -14.6905 0 0 0 0 0 0
1277 4 C 1.008 -8.71287 2.54839 -15.574 0 0 0 0 0 0
1428 4 C 1.008 -4.25557 9.53074 -14.1658 0 0 0 0 0 0
1262 4 C 1.008 -1.40955 -0.0631996 -10.4982 0 0 0 0 0 0
1498 12 C 15.999 -8.35981 1.02553 -14.7704 0 0 0 0 0 0