1877
Atoms. Timestep: 100000
N -0.507777 -6.01937 -20.7833
H -0.0908199 -6.2031 -19.8746
H 0.0488782 -6.48582 -21.5414
H -1.42133 -6.57253 -20.7559
C -0.760358 -4.51059 -20.9512
H -1.46988 -4.27101 -20.1948
C 0.622107 -3.88783 -20.6064
H 0.619622 -4.00578 -19.5224
H 0.515643 -2.79283 -20.7591
C 1.96457 -4.3939 -21.2528
H 2.00925 -5.49845 -21.0748
H 2.88753 -4.03251 -20.7392
C 2.07423 -3.94919 -22.7618
H 1.10489 -3.77746 -23.2319
H 2.76374 -4.66121 -23.3002
N 2.76486 -2.60756 -22.787
H 3.76118 -2.54517 -22.7604
C 2.17967 -1.39785 -22.9372
N 2.98693 -0.342036 -23.1074
H 2.49003 0.54655 -23.2026
H 4.00648 -0.444619 -22.9642
N 0.889069 -1.29944 -23.0154
H 0.283104 -2.09033 -22.9686
H 0.482989 -0.460866 -23.2006
C -1.24789 -4.24407 -22.3271
O -1.56745 -5.12285 -23.1616
O -1.47963 -3.00521 -22.5913
Cl 3.75093 7.54163 -22.1852
Cl 7.10099 -4.80274 -9.00452
Na 8.37786 8.63569 -23.2107
O 1.73321 6.09137 11.8142
H 1.28634 5.43087 12.3436
H 2.66307 5.88355 11.9059
O -8.78857 -1.51948 -17.884
H -8.2923 -0.856552 -17.4039
H -9.38702 -1.88842 -17.2344
O 8.29689 1.91053 -5.55434
H 8.68155 1.15477 -5.11039
H 8.88459 2.63652 -5.3451
O 4.27519 -3.77475 -13.5279
H 5.09002 -3.36067 -13.8122
H 4.42039 -4.71062 -13.6668
O -1.26311 -6.31912 -8.62821
H -1.47876 -5.40839 -8.42746
H -0.910384 -6.29178 -9.51764
O 1.56267 -4.38094 8.6304
H 0.979451 -4.34485 7.87225
H 2.29553 -3.81125 8.39674
O -3.01255 -8.06526 11.6381
H -3.82657 -7.59078 11.4693
H -3.25207 -8.73106 12.2827
O -5.38503 -0.883241 -17.916
H -5.68389 -1.56477 -17.314
H -5.56264 -0.0624858 -17.4566
O 0.953635 6.92164 8.09938
H 0.348748 6.27248 8.45845
H 1.09147 7.54267 8.81461
O 2.50595 7.61549 -10.5699
H 2.5861 6.73269 -10.9311
H 2.59229 8.19368 -11.3278
O 9.72264 -6.99168 5.92715
H 10.0351 -6.16189 6.28776
H -9.92793 -7.65741 6.35634
O -10.0885 -5.60647 -22.8246
H -9.19343 -5.90389 -22.9877
H 9.55593 -6.37518 -22.9974
O -3.68501 -7.75794 -5.06423
H -3.14973 -7.96415 -5.83051
H -4.11219 -6.93043 -5.28555
O -4.37516 -6.29087 -14.6732
H -4.51937 -7.23339 -14.7575
H -5.24795 -5.90634 -14.7544
O -9.4271 9.88439 13.2622
H -9.42078 8.94689 13.4553
H -10.0863 9.98352 12.5754
O 4.39289 9.78545 1.27144
H 4.7886 9.38666 0.496442
H 3.45522 9.80326 1.07991
O -2.66122 0.390711 -1.50007
H -3.36691 0.736453 -2.04659
H -2.34671 1.14823 -1.00663
O 7.48641 -4.33317 -23.204
H 8.05677 -3.56804 -23.2782
H 8.02376 -4.99115 -22.7629
O 2.8842 3.8235 -7.8935
H 3.80263 3.90783 -7.63735
H 2.65218 2.92409 -7.66229
O 3.3997 -7.45602 -21.9362
H 4.30595 -7.18248 -22.0781
H 3.39572 -7.82438 -21.0527
O 8.31994 -9.37684 -14.7443
H 8.4485 -8.88822 -15.5572
H 8.12781 9.70974 -15.029
O 4.0979 4.72216 11.7351
H 4.10188 4.18939 10.9399
H 4.8979 5.24462 11.6779
O 10.0136 -2.89556 11.9067
H -9.90535 -2.02325 12.1946
H 9.63543 -2.75571 11.0386
O -2.47357 3.97615 6.87451
H -1.84316 4.11845 6.16843
H -2.38677 3.04762 7.09021
O -6.11765 -9.8737 10.7673
H -5.55086 -9.94082 9.99884
H -6.33395 -8.94307 10.8254
O -3.54729 -0.315482 11.5267
H -2.66219 -0.112482 11.8294
H -3.63213 0.157336 10.6988
O 9.24374 4.70815 -5.06956
H 8.84902 5.57499 -4.97461
H -10.023 4.83802 -4.84461
O 10.006 -1.7284 4.79584
H -9.23966 -1.87997 4.72283
H 9.91175 -1.17111 5.56835
O -2.02459 -7.75876 -23.1991
H -1.77389 -6.83865 -23.2814
H -1.33802 -8.23706 -23.664
O -4.35712 -2.54063 -20.681
H -4.38586 -2.17826 -21.5664
H -4.18507 -3.47351 -20.8089
O -0.479432 -0.330042 11.6037
H -0.260601 0.119518 12.42
H 0.248377 -0.934998 11.4604
O -4.08374 -4.16765 -23.2767
H -3.968 -3.21826 -23.2382
H -3.19793 -4.51311 -23.3873
O 1.01559 5.24157 -5.75054
H 1.39855 4.72691 -6.46096
H 1.38189 6.11848 -5.865
O -0.730655 -6.6549 5.42708
H -0.144373 -7.11661 4.82765
H -0.529157 -5.72866 5.29395
O 9.9054 -9.64007 -0.869456
H -9.39144 -9.98916 -0.883222
H 9.89488 -8.9815 -1.56402
O -4.86876 -5.72716 -6.51234
H -5.1974 -5.89695 -7.39517
H -5.64141 -5.45596 -6.01667
O -1.2792 8.9143 7.84679
H -1.11669 9.83566 8.04909
H -0.493777 8.45963 8.15113
O -3.72982 -2.84141 -10.9591
H -2.94168 -2.92692 -10.4227
H -3.5481 -3.36708 -11.7381
O 5.85356 -6.35249 -22.1242
H 5.98054 -5.50138 -22.5434
H 5.84212 -6.15901 -21.1869
O -9.48568 3.7546 5.33734
H -9.57484 4.48347 5.95136
H -8.74071 3.25239 5.66755
O 8.07349 2.57585 5.00968
H 8.96949 2.86668 5.17945
H 7.55743 3.38195 4.99925
O 6.01818 -0.870502 -4.3657
H 6.81905 -0.609287 -3.91115
H 6.32481 -1.3064 -5.16081
O 8.58173 2.98244 -23.0851
H 9.36359 3.51895 -23.2157
H 7.85989 3.61079 -23.0663
O -4.92727 0.641177 -20.2006
H -5.85307 0.573612 -19.967
H -4.59079 -0.250161 -20.1082
O 6.80975 -1.94187 -6.59255
H 6.00056 -2.27669 -6.97898
H 7.3706 -1.74523 -7.34289
O -3.4741 -3.24859 -17.811
H -4.03029 -2.66247 -18.3242
H -3.14981 -3.88804 -18.4451
O 7.89636 -0.622761 -14.9147
H 7.65891 0.00427211 -14.2316
H 8.00521 -0.0898019 -15.7023
O -3.28136 -9.20113 0.00613257
H -3.7664 -8.92907 -0.772942
H -2.55481 -8.58076 0.0652944
O -3.68941 9.50726 -12.4656
H -3.81241 -9.52348 -12.4663
H -4.57752 9.15019 -12.4665
O -9.13219 -6.68452 -7.41655
H -9.41966 -7.55105 -7.12894
H -9.15155 -6.73027 -8.37246
O -4.87421 -3.34258 8.36856
H -5.0423 -2.61612 7.76836
H -4.26419 -2.98473 9.01358
O -6.88002 3.50841 -11.2114
H -6.31721 3.59749 -11.9805
H -6.84926 4.36765 -10.7907
O 9.57182 6.16637 6.67649
H -10.0227 5.8338 7.34982
H 9.48655 7.09962 6.87143
O -4.28601 -0.237375 2.46674
H -4.69864 0.41044 3.03796
H -3.49562 0.195738 2.14436
O 5.4007 9.4873 -18.0783
H 4.44636 9.53986 -18.1304
H 5.71114 -9.92608 -18.7846
O 7.67646 5.56651 5.02698
H 8.32893 5.61954 5.72534
H 8.15024 5.82337 4.23591
O -0.471537 -1.40853 -6.76074
H 0.00424541 -1.9431 -6.12506
H 0.158101 -0.740318 -7.03145
O -2.29345 4.42157 11.6377
H -2.16614 5.08231 12.3184
H -1.50626 3.87864 11.68
O 4.22283 1.34357 -12.1269
H 4.86798 1.89871 -12.5649
H 4.67377 0.509564 -11.9953
O -7.47099 -1.08214 -5.54123
H -8.16026 -1.463 -6.08537
H -7.93766 -0.527031 -4.91648
O -1.32679 -1.90473 -9.97019
H -0.54911 -2.12779 -10.4817
H -0.981657 -1.56668 -9.14385
O 9.61541 -4.40585 -7.0925
H 8.8256 -4.45458 -7.63106
H 9.93927 -5.30599 -7.05946
O -3.32758 1.46793 -18.3152
H -3.91844 1.6813 -17.5929
H -3.82201 0.851841 -18.8557
O 9.81159 6.59255 -10.29
H -9.72464 7.17617 -9.90167
H 9.87528 5.78671 -9.77738
O 7.32452 7.05594 -11.7611
H 6.915 6.63529 -11.005
H 8.26369 7.00931 -11.5821
O -5.50004 -2.36584 3.71785
H -5.08107 -3.20793 3.89557
H -4.78735 -1.80185 3.41749
O -7.30597 2.87502 -20.4948
H -7.95769 2.20148 -20.3002
H -7.08482 2.73614 -21.4156
O -7.58678 3.71242 11.5512
H -6.67566 3.81985 11.2782
H -7.9569 4.59392 11.5043
O 6.25798 1.71091 -18.8014
H 6.33106 2.47409 -18.2283
H 6.83912 1.90625 -19.5365
O 9.74429 -6.00335 -13.0554
H 8.78892 -6.06105 -13.0422
H 9.9872 -5.8357 -12.1448
O 8.04902 9.29848 1.20346
H 8.75398 9.59606 0.628381
H 8.17882 8.35264 1.27259
O -4.02844 6.53297 -19.5222
H -3.67918 5.6454 -19.4417
H -4.44224 6.55071 -20.3852
O 0.527442 9.69662 12.5887
H 1.17759 -9.63608 12.3157
H 0.385713 9.87613 13.5182
O -9.45651 4.4008 -23.0333
H -9.05295 5.18729 -23.4004
H -8.78147 4.02667 -22.4671
O 0.248541 -6.25543 -18.0205
H 0.948883 -6.12027 -17.3822
H -0.382549 -6.81609 -17.5693
O 9.41071 -3.11596 9.15897
H -10.0742 -3.64646 8.78409
H 8.76496 -3.04216 8.45627
O -6.04471 7.25479 -4.08993
H -6.08385 6.59815 -3.39457
H -5.11652 7.30815 -4.31766
O -3.98303 1.9246 -3.45077
H -3.15604 1.78745 -3.91284
H -4.65498 1.81421 -4.12348
O 7.00875 -6.36101 6.46219
H 7.85993 -6.79075 6.37825
H 6.38185 -7.08124 6.52916
O 2.25116 -6.02435 -0.208947
H 2.35957 -6.97255 -0.135466
H 3.05665 -5.66145 0.159457
O 3.84736 0.0511283 -2.73955
H 3.60385 -0.716978 -2.22288
H 4.73293 -0.138869 -3.04924
O -2.16067 2.55905 0.113679
H -2.05123 2.80517 -0.804842
H -2.92964 3.0498 0.403652
O -6.09011 0.906276 -10.7975
H -6.51805 1.74604 -10.9646
H -5.44016 1.09839 -10.1216
O -10.0653 2.73705 11.5094
H 9.47665 3.42369 11.6749
H -9.22294 3.19135 11.5248
O 2.26689 2.79058 2.55982
H 2.82163 3.33305 1.99927
H 1.38963 2.87927 2.1873
O 5.82262 -6.34487 -19.4686
H 6.27315 -5.52102 -19.2828
H 5.36753 -6.55854 -18.6541
O -10.0636 -4.58186 -3.83347
H 9.96371 -5.50232 -3.62567
H 9.35292 -4.30988 -4.33059
O 4.99813 -7.29017 1.48146
H 4.55131 -8.09425 1.21682
H 5.24162 -7.44042 2.3949
O 1.91287 4.62216 -10.3977
H 1.49608 3.77325 -10.5456
H 2.29705 4.55184 -9.52379
O 7.0051 -9.6861 -22.8727
H 6.12511 -9.6855 -23.2493
H 6.86672 -9.52618 -21.9392
O 4.69041 2.13588 -22.3567
H 5.45005 1.56182 -22.4548
H 4.4503 2.06049 -21.4332
O 3.88808 -3.83973 -16.9532
H 3.28428 -4.58148 -16.9916
H 3.38585 -3.10319 -17.3018
O -5.31675 -8.72729 -9.86949
H -6.03391 -8.17212 -9.56338
H -5.10371 -9.28031 -9.11782
O 9.09683 7.91321 -5.51939
H 10.0356 7.92929 -5.70575
H 9.02099 8.27723 -4.63736
O 5.48518 -5.88091 11.1463
H 5.21586 -5.26873 10.4615
H 6.11449 -5.38913 11.6739
O -0.82931 5.14998 9.10976
H -0.927818 4.29291 8.69508
H -1.12445 5.01614 10.0104
O -7.08883 -9.90965 -4.56562
H -7.02017 -9.1305 -4.01386
H -6.37312 9.50574 -4.27371
O -1.85228 5.26558 -14.965
H -1.64116 5.75713 -15.7587
H -2.66964 4.81305 -15.1732
O 7.78426 -5.99063 9.2499
H 7.14822 -6.17819 8.5596
H 7.84211 -5.03539 9.26984
O -6.18952 2.7424 4.83119
H -5.24375 2.60463 4.88383
H -6.33911 3.04003 3.93382
O -4.13134 -7.76091 -2.20536
H -3.48931 -7.06946 -2.04434
H -4.05799 -7.94308 -3.1422
O -9.26436 5.84161 11.5369
H -9.93859 6.51302 11.4327
H -8.56841 6.275 12.0309
O -0.103869 4.15107 -2.49162
H 0.611862 4.23108 -3.12214
H 0.098102 4.79825 -1.8159
O 9.18564 5.71514 -20.4861
H 8.80196 4.87091 -20.2488
H 10.0534 5.70638 -20.0822
O 4.61543 -7.56401 -6.04337
H 4.3943 -6.95315 -5.34039
H 4.2862 -8.40966 -5.73889
O -3.34086 -9.98662 -23.0958
H -2.73385 -9.27331 -23.2932
H -2.8103 9.19993 -23.1678
O 0.836987 7.46421 -23.2369
H 0.2707 6.69435 -23.2905
H 1.64232 7.142 -22.8321
O -9.88083 -3.15911 -1.29808
H -9.88464 -3.1818 -2.255
H -9.00959 -3.47157 -1.05408
O 4.68085 1.3223 6.81027
H 4.11236 1.21052 6.04832
H 4.449 0.597616 7.39105
O 4.46497 4.87563 -20.8035
H 3.80538 4.40476 -20.2942
H 4.03765 5.6961 -21.0494
O 8.26479 6.2116 -7.59254
H 8.72041 6.94439 -7.17821
H 8.85127 5.4649 -7.47128
O 1.26491 -0.621283 5.96813
H 1.6135 -0.259547 5.15335
H 1.73672 -1.44576 6.08588
O -7.71787 -0.185385 -20.3606
H -8.67237 -0.120537 -20.3298
H -7.47605 -0.568926 -19.5176
O 1.1144 0.238169 -8.24589
H 1.73673 -0.468021 -8.41976
H 1.62511 0.89804 -7.77687
O 1.9185 5.13442 6.0296
H 2.04319 5.79805 6.70804
H 1.4038 5.57573 5.35392
O 9.50469 9.38621 4.09695
H 9.9165 9.69128 3.28851
H -10.0577 8.7616 4.46406
O -1.59173 -0.784512 0.890209
H -1.8957 -0.587112 0.00428024
H -0.69767 -1.10506 0.771321
O -6.83613 5.69668 -23.2831
H -6.36663 6.2573 -22.6655
H -6.98536 6.25366 -24.0472
O 1.59173 5.99484 -1.33068
H 2.37166 6.45517 -1.64057
H 1.88731 5.51647 -0.556068
O 8.82886 8.67795 -2.93712
H 8.77154 9.40037 -2.31178
H 9.25534 7.97258 -2.4505
O 3.93167 -0.664502 8.75314
H 3.09458 -0.242428 8.94646
H 4.47088 -0.492968 9.52518
O -0.819398 1.87963 -3.76782
H -0.125078 1.27207 -3.51282
H -0.761168 2.59166 -3.13076
O -7.70776 0.738238 -15.9572
H -8.01539 0.955041 -15.077
H -7.25346 1.52687 -16.2536
O -0.978115 9.30814 2.6813
H -1.26061 9.19698 3.58908
H -1.76671 9.1473 2.16315
O 4.98901 -3.80323 8.96977
H 4.88951 -2.99249 9.46879
H 5.74209 -3.64394 8.4008
O -1.51618 -6.94519 -0.441558
H -1.11517 -6.78621 0.412928
H -1.86064 -6.09259 -0.70737
O 3.01613 -5.57384 3.87139
H 3.16874 -6.51442 3.96214
H 3.60513 -5.1724 4.51027
O -3.86027 -8.78864 8.94661
H -3.25766 -8.85193 9.68761
H -3.67416 -7.93378 8.55827
O 5.80882 0.87443 -6.37836
H 6.5966 1.32914 -6.08025
H 5.84302 0.0234914 -5.94137
O 2.49559 2.32598 11.2079
H 2.78045 2.99434 11.8311
H 3.19646 2.29055 10.5569
O -8.76852 5.33368 3.12993
H -8.26436 5.59789 3.8995
H -9.45025 4.75762 3.47582
O -9.094 -0.258338 -0.944014
H -8.44505 -0.29466 -0.241329
H -9.60274 -1.06279 -0.842671
O -2.46619 -8.74101 -7.64578
H -2.42006 -9.13966 -8.5148
H -2.18097 -7.83734 -7.78084
O 5.21688 5.31469 -2.5425
H 4.91311 4.44892 -2.81527
H 6.17172 5.24813 -2.55248
O 4.6497 8.62738 8.27295
H 5.1637 8.19495 7.59102
H 3.7392 8.45937 8.03007
O 4.69524 -3.30349 -7.55176
H 4.07314 -2.8475 -8.11858
H 5.19454 -3.86416 -8.14555
O -6.03896 7.05729 -0.196524
H -5.92913 6.68692 0.679255
H -6.31507 7.96071 -0.0421316
O 2.45979 3.14721 -13.481
H 2.86724 2.53416 -12.8691
H 2.82618 2.91407 -14.334
O -2.25749 5.79629 -0.419301
H -2.63963 5.10213 -0.956281
H -2.2434 6.56281 -0.992428
O 1.99742 -8.83433 -7.06921
H 2.56645 -9.41212 -7.57773
H 1.72102 -8.16142 -7.69132
O -0.92772 -3.95332 -4.76461
H -0.992302 -3.83069 -3.8175
H -0.421594 -4.75912 -4.86831
O 8.67102 -1.12856 -8.46919
H 8.2086 -0.69101 -9.184
H 9.41838 -1.55266 -8.8909
O -8.31863 5.27057 -1.67511
H -9.16054 5.72497 -1.70591
H -7.67519 5.96633 -1.54041
O 7.41511 -7.0109 -4.73751
H 7.42325 -6.08324 -4.97332
H 6.84124 -7.4184 -5.38623
O -3.40153 7.93494 11.397
H -3.58403 7.94822 10.4575
H -2.47596 7.69874 11.4584
O -5.97332 7.78356 -14.5078
H -5.14671 8.056 -14.9062
H -5.77288 7.69483 -13.576
O 7.58645 1.53428 1.88385
H 7.23564 1.99709 2.64475
H 7.88817 0.695042 2.23152
O -6.23389 6.89719 -17.9006
H -6.28846 7.84569 -18.0172
H -5.39811 6.6541 -18.2988
O 4.27644 -3.83551 -10.7493
H 3.85464 -4.08434 -11.5717
H 5.05382 -4.39185 -10.7004
O -5.97303 -9.74267 -24.4188
H -5.16792 -9.98983 -23.9639
H -5.86013 9.89934 -25.3072
O 1.59088 8.38936 10.2534
H 2.33008 7.83829 10.5106
H 1.24651 8.72966 11.0792
O 7.12618 -3.09116 2.15028
H 6.31454 -3.59717 2.11258
H 7.81718 -3.75036 2.21509
O 9.61264 -2.1776 -19.8777
H 9.06197 -1.56784 -19.3866
H -9.80551 -2.30549 -19.3234
O -1.83486 4.24067 -5.01723
H -1.24172 3.49972 -4.89311
H -1.39831 4.79126 -5.66724
O 3.20316 -1.66596 -9.03607
H 3.9998 -1.20468 -8.77376
H 3.41659 -2.0486 -9.88711
O 1.07068 -3.61259 -9.25092
H 1.8304 -3.03729 -9.16096
H 1.02704 -3.80788 -10.187
O -6.97945 1.21229 11.2899
H -7.58247 1.89904 11.0054
H -6.24436 1.68502 11.6803
O -9.44011 -9.03123 -22.7991
H -9.15027 -8.15903 -22.5317
H -8.81139 -9.62799 -22.3932
O -2.34756 0.941402 -6.42693
H -1.8879 1.0258 -5.59158
H -2.08586 0.0827063 -6.75918
O -8.42887 -8.98053 -19.7457
H -7.80053 -8.85483 -19.0346
H -9.0066 -9.67761 -19.435
O 4.50581 -2.75552 11.4815
H 5.3969 -2.93435 11.7818
H 4.42019 -1.80379 11.5373
O 6.29079 -9.81249 3.30434
H 6.96627 9.95824 2.65922
H 5.465 -9.97777 2.84938
O 2.54928 4.15214 -23.0933
H 3.00676 4.93837 -23.3913
H 3.21426 3.65261 -22.6195
O -6.04557 -4.2621 11.7793
H -6.57958 -3.54129 11.4454
H -5.1492 -3.92703 11.757
O -4.79485 3.09595 11.4775
H -4.97732 4.0342 11.5288
H -3.84037 3.03916 11.4332
O 1.96789 -2.48699 -14.4619
H 2.73737 -3.04867 -14.5549
H 1.97093 -1.94342 -15.2498
O -3.97565 -0.204046 -11.9988
H -4.87609 -0.0216667 -11.7301
H -3.80931 -1.09516 -11.6914
O 5.1706 -1.36895 -12.0465
H 4.57179 -2.08819 -12.2474
H 5.48106 -1.5555 -11.1605
O 4.97857 2.57942 -2.46457
H 4.47922 1.93887 -2.9711
H 4.98896 2.22643 -1.5749
O 6.19022 -2.22227 -16.8881
H 6.42989 -2.47185 -15.9957
H 5.41099 -2.74328 -17.082
O -3.30547 6.96707 -5.17477
H -2.48446 7.00525 -4.68415
H -3.16206 7.54055 -5.92762
O -3.30245 2.18316 4.45924
H -3.17452 1.81532 5.33363
H -2.77119 2.97937 4.45374
O 1.78021 -2.58432 11.5407
H 1.67655 -3.51939 11.3642
H 2.72735 -2.44718 11.5594
O -5.41544 -4.65644 5.52605
H -5.00359 -5.50766 5.37759
H -5.57765 -4.62952 6.46902
O -7.11175 -1.52396 11.3535
H -7.06863 -0.573127 11.4549
H -7.73458 -1.66117 10.6397
O 1.91427 7.79113 -6.49834
H 2.78275 7.93352 -6.87477
H 1.32486 8.29919 -7.05575
O -8.96879 7.31199 1.12544
H -8.89215 6.55985 1.7125
H -8.23305 7.87685 1.36179
O -7.27295 1.26738 -3.23204
H -6.73045 0.581317 -3.62094
H -6.91719 1.38417 -2.35111
O 7.69014 4.07887 -0.382239
H 7.95605 3.18979 -0.147585
H 7.56119 4.04848 -1.33023
O 1.24366 -5.3545 -2.82879
H 1.51812 -5.27155 -1.91554
H 0.430362 -5.85777 -2.7902
O 2.05558 -1.42763 -16.9641
H 1.18896 -1.83071 -17.0164
H 2.09267 -0.839627 -17.7185
O 0.383012 -6.33127 -6.23657
H 1.01086 -7.01385 -6.47344
H -0.22251 -6.29475 -6.977
O -8.30439 -7.78271 11.4727
H -8.77686 -6.95714 11.3658
H -8.58953 -8.11389 12.3243
O -4.09012 3.4701 -11.1003
H -3.33762 4.06009 -11.057
H -3.85092 2.73428 -10.5368
O -5.5639 -1.71284 6.36888
H -6.24798 -1.05247 6.47922
H -5.64547 -1.99287 5.45721
O -1.83746 -1.11594 -20.7432
H -1.93755 -1.78964 -21.4157
H -2.41757 -1.39572 -20.035
O -3.96954 -2.17148 0.411827
H -3.02183 -2.1939 0.279249
H -4.09755 -1.54413 1.12336
O -0.784661 7.3841 11.6212
H -0.363825 8.18079 11.9443
H -0.0594492 6.82873 11.3351
O -0.996511 6.34986 1.87316
H -1.36584 7.2316 1.82467
H -1.3551 5.89716 1.1098
O -4.9162 1.79357 -16.1453
H -4.77656 2.66234 -15.7685
H -4.33019 1.22053 -15.6509
O -9.38788 -2.85977 -22.9523
H -9.54342 -3.79234 -23.1019
H -8.5298 -2.82434 -22.5296
O -5.0248 -4.52605 -9.29068
H -4.72932 -3.80911 -9.85186
H -4.23212 -4.82376 -8.8443
O -0.923533 2.69427 -20.6504
H -0.313365 2.05325 -20.2857
H -1.53241 2.1745 -21.1751
O 5.98045 4.46766 -23.0801
H 5.53549 4.69348 -22.2633
H 5.69791 3.57258 -23.2678
O -2.21546 -3.91377 -8.3305
H -1.90096 -3.23768 -8.9307
H -2.16128 -3.50986 -7.46439
O 7.22704 0.380091 6.21144
H 6.36948 0.723363 6.4624
H 7.49693 0.925363 5.47247
O 0.866814 0.082665 -2.32829
H 1.69287 0.139576 -2.80851
H 1.06798 0.436576 -1.46197
O -4.20582 3.59761 1.55053
H -5.15676 3.50886 1.61423
H -3.92883 3.85022 2.43126
O 4.2817 8.17699 11.3554
H 4.3375 8.63671 10.5177
H 4.87396 8.65826 11.9332
O 7.24223 2.83764 8.1187
H 7.16421 2.29863 7.33155
H 8.00714 2.48688 8.5749
O -6.83369 9.42864 -7.5253
H -6.79123 9.8447 -6.6643
H -6.43558 8.56785 -7.39578
O 4.10956 -8.60679 -16.2425
H 3.58948 -9.17754 -15.6768
H 4.83457 -9.15761 -16.5378
O 8.66555 -7.10934 11.5348
H 8.44281 -6.90707 10.6261
H 7.9722 -6.69633 12.0495
O -6.79794 -9.63388 7.19114
H -7.39052 -8.98436 7.56957
H -6.06202 -9.12127 6.85665
O 0.427219 2.32286 -10.5055
H 0.739033 1.65621 -9.89348
H -0.234568 1.8745 -11.0321
O -4.39245 -8.79816 -15.5915
H -4.05622 -9.69416 -15.5723
H -4.72489 -8.6856 -16.4821
O -6.49367 -6.51762 -12.4787
H -7.42378 -6.32329 -12.5943
H -6.45451 -7.47157 -12.4102
O 7.56469 -4.18239 -19.0032
H 7.79165 -4.46508 -18.1173
H 8.27644 -3.59501 -19.2574
O -2.8855 3.99412 -2.1535
H -1.97372 4.00561 -2.44462
H -3.34132 3.47074 -2.81269
O -4.22082 3.71407 -14.0413
H -5.15861 3.87637 -13.9391
H -3.92896 3.43815 -13.1725
O -9.6856 -7.16799 -15.2651
H -9.68203 -8.00723 -14.8047
H -9.94705 -6.53079 -14.6003
O 4.42297 -1.93023 1.2597
H 4.87 -1.83614 0.418541
H 4.37765 -2.87557 1.40296
O 0.482329 -8.58514 -10.6712
H 1.41422 -8.53673 -10.8844
H 0.323093 -7.82157 -10.1163
O 9.61914 -0.429803 7.36206
H 9.67832 -0.0978718 8.25791
H 8.83572 -0.0131803 7.00302
O -5.15423 1.35922 8.73192
H -4.984 2.28433 8.55469
H -5.5938 1.35468 9.58221
O 4.6476 8.18429 -7.64332
H 5.10654 8.77813 -7.04922
H 4.92529 8.45756 -8.51765
O -0.925154 -8.30629 8.08062
H -0.936632 -7.36721 8.26565
H -0.23681 -8.41314 7.42411
O -7.00214 3.03416 -23.2154
H -6.90107 3.98381 -23.1507
H -7.1358 2.87013 -24.1489
O 3.01962 -8.3724 -19.2039
H 3.02188 -9.32883 -19.1655
H 2.45577 -8.10444 -18.4783
O 3.03952 6.78162 2.16984
H 2.71644 7.67394 2.04487
H 3.83304 6.88504 2.69506
O 7.4796 -1.21849 11.5007
H 8.23369 -0.901914 11.998
H 7.1147 -0.433406 11.0924
O 5.89897 5.98978 -5.94894
H 5.43915 6.37372 -6.69552
H 6.40334 6.71445 -5.57922
O -7.06187 -6.66439 -9.42092
H -7.87418 -6.70788 -9.92539
H -6.55854 -5.96419 -9.83638
O 9.30797 -9.95089 -7.98687
H 10.0248 -9.73096 -7.39189
H 8.56559 -9.43742 -7.66835
O 2.90398 8.90442 5.72671
H 2.48719 9.40844 6.42562
H 2.31154 8.16787 5.5759
O -7.60279 -9.44288 -0.332131
H -7.45006 -8.50588 -0.209916
H -7.2806 -9.84573 0.47418
O 6.26173 -2.30277 -20.282
H 5.66467 -1.73582 -19.7938
H 6.62101 -2.89692 -19.6231
O -8.30654 5.59518 -19.3549
H -8.03436 4.74859 -19.7091
H -7.69784 5.76108 -18.6351
O -3.59991 -3.08783 11.2892
H -3.73214 -2.13985 11.2809
H -2.79892 -3.21396 11.7979
O -9.78048 3.50458 -17.3482
H -8.8547 3.69707 -17.1995
H 9.95441 4.31751 -17.1245
O -0.794931 -1.9849 -17.095
H -1.69954 -2.2538 -17.2549
H -0.72976 -1.91658 -16.1424
O 9.43155 1.51801 9.20118
H 9.60632 1.77839 10.1056
H -10.0808 1.96208 8.68876
O -3.78287 -5.46234 -19.8676
H -4.35098 -5.40747 -19.0991
H -4.10297 -6.22543 -20.3487
O 3.4148 -8.3667 -1.08235
H 3.0616 -9.18289 -1.43636
H 4.22966 -8.22846 -1.56517
O 0.998 1.7734 -22.9927
H 0.0500038 1.86256 -23.0906
H 1.34809 2.62222 -23.2632
O -8.62974 -7.62025 7.97268
H -8.30388 -6.72926 8.09986
H -8.85889 -7.91985 8.85243
O 7.03414 0.725271 -22.8453
H 7.60159 -0.0442261 -22.8911
H 7.62053 1.46552 -23.0015
O -9.73854 0.0666703 11.7962
H 10.0015 0.900103 11.9409
H -8.80988 0.296146 11.762
O -9.4437 6.09413 -14.8806
H -9.12399 6.63278 -15.6044
H -10.0216 5.45353 -15.2952
O 5.90012 6.20836 6.87482
H 6.38039 5.97734 6.07971
H 5.24293 5.51859 6.96718
O 1.35167 -1.75373 0.429995
H 1.71756 -1.98871 1.28272
H 1.57091 -0.828313 0.321542
O -4.60565 -1.27033 -8.77297
H -4.15433 -1.86519 -9.37188
H -4.55957 -1.70604 -7.92193
O -5.18127 7.2185 -7.81641
H -5.26551 6.60291 -7.08827
H -4.27131 7.13132 -8.10032
O -5.43237 -9.79813 -21.391
H -4.62149 -9.81224 -21.8994
H -5.84337 -8.96395 -21.6178
O -8.59965 2.32038 7.75675
H -8.19975 1.49075 7.49595
H -7.94724 2.98306 7.52989
O 7.58512 9.64894 5.86715
H 6.89428 9.80069 5.22221
H 8.38754 9.58629 5.34905
O -10.0375 4.78951 9.07719
H -9.65425 5.02845 9.92116
H -9.50106 4.05945 8.76814
O 8.30508 3.12554 -20.3094
H 9.10231 2.75122 -19.9345
H 8.4022 3.00063 -21.2534
O 1.94846 -8.13797 11.5241
H 1.90878 -7.21111 11.2883
H 2.87697 -8.36197 11.4615
O -0.559823 -5.68656 -12.0105
H 0.257989 -5.56164 -12.492
H -1.22094 -5.24188 -12.541
O 8.74364 8.50111 -20.7407
H 8.71587 7.58037 -20.4805
H 8.96587 8.97102 -19.9369
O 0.637695 6.43233 4.07119
H -0.0657981 6.11223 3.50651
H 1.37531 6.57515 3.47809
O -0.0459751 6.17391 -12.6506
H 0.219066 5.40193 -12.1506
H -0.717007 5.85142 -13.2523
O 9.56151 6.66954 -0.996193
H -10.0214 6.98973 -0.327208
H 9.1478 5.90336 -0.598647
O 8.73621 5.8807 -17.1201
H 8.10926 6.32077 -16.5461
H 8.67155 6.35087 -17.9513
O -2.27912 8.63535 -7.04096
H -1.52351 8.55619 -7.62322
H -2.58823 9.5321 -7.16949
O -2.84907 6.87376 -10.6889
H -3.04915 7.8052 -10.596
H -1.90999 6.84713 -10.8723
O -2.99259 8.157 0.950583
H -3.51493 8.91169 0.678833
H -2.75227 7.72399 0.13145
O -6.78506 0.673066 6.42916
H -6.61651 1.35566 5.77963
H -6.23341 0.909782 7.17474
O -3.75216 9.91848 6.27392
H -2.88961 -9.65969 6.17007
H -4.11713 -9.64764 7.05605
O -3.20003 3.79115 -19.5264
H -3.3877 2.96158 -19.0873
H -2.69119 3.54418 -20.2986
O -0.473494 3.72466 4.96582
H 0.345881 3.61842 5.44911
H -0.219073 3.66132 4.04523
O 3.09672 9.6633 -14.4906
H 2.20497 9.33629 -14.3719
H 3.56352 8.94055 -14.91
O 1.37082 -2.54423 -11.8919
H 1.62071 -1.6272 -11.7786
H 1.3148 -2.6623 -12.8401
O 5.58225 3.73094 -7.36883
H 6.30075 3.20818 -7.72481
H 6.005 4.33722 -6.7606
O 2.04872 9.55132 -2.58856
H 1.47949 9.86887 -3.28954
H 2.43699 8.74977 -2.93926
O -5.60982 -1.45933 -1.72045
H -6.21944 -0.758385 -1.48964
H -5.08955 -1.59532 -0.928586
O -2.15488 -4.40978 -1.17169
H -1.50998 -4.05814 -1.78544
H -2.97748 -4.40873 -1.66115
O -0.379603 3.53116 2.07077
H -0.95516 3.05657 1.47099
H -0.533293 4.4545 1.87063
O 8.21278 -9.80753 11.1269
H 8.06073 -9.82427 10.182
H 8.37221 -8.88538 11.328
O 0.292683 -9.11576 -4.85302
H 0.953843 -8.96705 -5.52902
H -0.121884 -8.2617 -4.73078
O 0.496647 8.63374 -8.70478
H 0.012925 9.07874 -9.40064
H 1.15038 8.10777 -9.16545
O 3.02635 -2.13573 -1.72997
H 3.52112 -2.952 -1.65826
H 2.43156 -2.14896 -0.980114
O -9.87223 -4.68469 -10.5175
H -9.68038 -3.74855 -10.5728
H 9.35985 -4.73421 -10.5181
O -8.59248 3.85797 -4.21952
H -8.30768 4.38494 -3.47291
H -8.4513 2.95278 -3.94215
O 3.14768 7.17733 -3.58869
H 2.84798 7.17802 -4.49776
H 3.69329 6.39418 -3.51647
O -7.00806 -3.44704 -19.2453
H -6.8039 -3.26519 -20.1627
H -7.56439 -2.7169 -18.974
O 1.70265 -3.41327 2.77576
H 2.27498 -4.04856 3.20597
H 0.933345 -3.92036 2.51643
O 4.89103 -7.18873 -8.76866
H 4.96327 -7.41482 -7.84136
H 5.54168 -6.49885 -8.89887
O 7.91455 -2.4942 -10.8913
H 7.68129 -3.15159 -10.2358
H 8.86235 -2.39336 -10.8033
O 8.05384 -0.318162 -17.8893
H 7.53035 -0.959021 -17.4082
H 7.4159 0.316679 -18.2153
O -0.141836 -3.88795 6.48618
H 0.278924 -3.56244 5.69042
H -0.879595 -3.29467 6.62745
O -3.44772 8.5782 -15.0502
H -2.56121 8.23064 -15.1479
H -3.48375 8.89358 -14.1472
O 2.32926 -5.29657 11.1748
H 3.16405 -5.09942 11.5997
H 2.42902 -4.96285 10.2832
O -9.34724 5.08485 -8.01772
H -8.58378 5.03826 -7.44223
H -9.335 4.25816 -8.50006
O -4.31292 -1.37358 -23.3298
H -5.07892 -0.802376 -23.3863
H -3.58975 -0.838234 -23.6564
O 6.15814 8.89647 -9.81694
H 6.83523 8.96298 -9.14362
H 6.62137 8.58061 -10.5927
O -8.08205 2.94206 -0.505839
H -8.29283 3.80319 -0.86675
H -8.93266 2.52712 -0.362619
O -7.59126 -6.81081 -23.0433
H -7.44348 -7.51807 -23.6712
H -6.72122 -6.61071 -22.6981
O -2.8126 9.17124 -18.8935
H -3.65338 9.02148 -18.4612
H -2.73314 8.45161 -19.5197
O -6.66197 0.121929 -23.1
H -6.99731 -0.107034 -22.2332
H -7.36261 0.637026 -23.5
O -0.657965 -2.05833 -14.3279
H 0.2804 -2.19576 -14.1982
H -0.760792 -1.10685 -14.3469
O -8.94888 9.9806 10.1311
H -8.40891 9.40452 10.6723
H -8.91599 -9.1523 10.5756
O -9.95842 8.25546 -12.6206
H -9.62987 7.65606 -13.2907
H -9.98975 7.72874 -11.822
O 6.98617 7.87392 -15.6787
H 6.2779 7.55305 -15.1204
H 6.54058 8.31322 -16.403
O -6.79507 -7.43665 2.19571
H -7.75196 -7.41296 2.20142
H -6.55238 -7.5516 3.11447
O 0.633385 8.65374 -13.8805
H 0.274642 7.79045 -13.675
H 0.377351 9.20271 -13.1394
O -3.29732 -0.143349 -14.6296
H -3.6442 0.0291232 -13.7543
H -3.15866 -1.09022 -14.6506
O 1.82937 -3.05934 -6.24949
H 1.37928 -3.36793 -7.03589
H 1.67646 -3.74603 -5.60041
O 7.67265 -7.81104 -7.91876
H 7.59639 -6.99397 -8.41152
H 6.77116 -8.11788 -7.82182
O -5.92447 1.21148 -0.789105
H -6.62838 1.85946 -0.818424
H -5.42166 1.43858 -0.00690758
O 5.80119 -8.95974 -11.5075
H 5.63444 -9.65761 -10.8739
H 6.67511 -9.14934 -11.8489
O 2.80355 -1.09509 3.43486
H 2.14851 -1.75302 3.20188
H 3.56141 -1.30758 2.89013
O -10.0654 1.44795 -3.02519
H -9.11871 1.33555 -2.93946
H 9.83179 1.70892 -2.15137
O 9.84282 -6.77642 -19.8025
H 9.73718 -5.98551 -20.3312
H -9.50101 -7.13618 -20.0748
O -6.02165 9.7954 -18.8862
H -5.92211 9.61969 -19.8218
H -5.5345 -9.3735 -18.7411
O 1.73752 -6.57449 -8.91659
H 2.62715 -6.22202 -8.89305
H 1.17622 -5.80385 -9.00192
O -3.49033 -7.73577 -12.0431
H -4.03749 -7.77509 -11.2587
H -3.62257 -6.8511 -12.3838
O 9.42866 1.83827 -0.186649
H 9.00441 1.76638 0.668381
H 9.84625 0.987292 -0.319663
O 7.98479 3.64802 -11.2404
H 7.75459 3.42702 -10.338
H 7.50018 4.45341 -11.4213
O -5.43902 7.02531 -11.8776
H -4.63603 6.55235 -11.6591
H -6.11274 6.61911 -11.3324
O 5.39998 1.14552 -0.139126
H 5.57123 0.214887 -0.283469
H 6.12399 1.43987 0.413495
O 7.51859 6.08438 1.86699
H 6.6083 6.08709 2.16293
H 7.59853 5.28671 1.34395
O -6.88517 9.90549 -11.7751
H -7.26317 9.19924 -11.2511
H -6.11702 -9.79208 -11.2787
O -9.91805 -3.46743 1.93216
H -9.2925 -2.75825 1.78387
H -10.0724 -3.83699 1.06278
O -7.38093 4.57901 -16.4321
H -6.9284 5.32229 -16.8308
H -7.03344 4.53629 -15.5412
O 6.8321 -4.39444 -5.53206
H 7.21719 -4.05107 -6.3383
H 5.95245 -4.01784 -5.5069
O 7.81565 2.48574 -8.6053
H 8.32867 1.96873 -9.22638
H 8.15775 2.23775 -7.74641
O 9.64204 4.02446 -13.2081
H 9.09426 3.76929 -12.4657
H 9.62797 4.98151 -13.1989
O -5.3222 5.30053 -2.27866
H -5.52924 5.80143 -1.4897
H -4.43844 4.9662 -2.12564
O 4.89728 -8.26753 8.30096
H 4.41735 -9.05208 8.03569
H 4.75146 -8.20469 9.2449
O -2.78587 4.76032 -22.5453
H -3.53821 4.30073 -22.9181
H -2.02439 4.31579 -22.9178
O -5.85578 -6.15575 -0.197274
H -5.90612 -6.48138 0.701429
H -5.45948 -6.87378 -0.690848
O -2.87258 -1.21928 8.75582
H -1.96442 -1.5187 8.71315
H -3.21017 -1.34969 7.86968
O 0.721047 7.44435 -19.0843
H 0.799076 7.33781 -18.1363
H 0.262339 6.65699 -19.3774
O -4.57215 4.68715 -6.30409
H -3.99581 3.9256 -6.36826
H -4.08003 5.31684 -5.77727
O -1.50266 9.60017 -10.4793
H -2.06703 9.80207 -11.2255
H -0.750442 -9.79698 -10.5826
O -9.64293 -7.72234 -2.77482
H -9.6934 -7.06035 -2.08528
H -8.72404 -7.72005 -3.04291
O -7.33975 -4.75032 8.87381
H -6.45092 -4.43301 9.03358
H -7.77115 -4.69521 9.7265
O 3.22775 -9.11074 -11.8576
H 3.4778 -9.52799 -12.682
H 4.05947 -8.88878 -11.439
O -9.5662 -9.02776 -5.82212
H -8.69011 -9.1522 -5.45714
H 10.0638 -8.87395 -5.05974
O 3.6129 1.73179 -16.0002
H 4.00561 1.24755 -15.2739
H 3.80743 1.20314 -16.7741
O 6.45902 5.60131 -9.74696
H 6.86903 5.92674 -8.94558
H 5.54709 5.44316 -9.50281
O 8.93125 -1.02261 -22.7377
H 9.78721 -1.41825 -22.9022
H 8.70816 -1.29464 -21.8475
O -3.2553 0.861477 6.87094
H -2.69192 0.0911463 6.79731
H -3.91266 0.616669 7.52223
O 4.49461 -3.13822 -4.83612
H 4.81664 -2.27178 -4.58752
H 4.10974 -3.01149 -5.70332
O -7.19659 7.75333 11.4222
H -7.26351 7.42674 10.5249
H -6.78725 8.61413 11.3344
O 6.4124 -1.51224 -0.478022
H 5.9946 -2.12954 -1.07853
H 6.83884 -2.06542 0.176471
O 9.9135 -1.80231 -6.09973
H 9.6628 -1.23846 -6.83147