ITEM: TIMESTEP
100000
ITEM: NUMBER OF ATOMS
1877
ITEM: BOX BOUNDS pp pp pp
-1.0093999999999999e+01 1.0093999999999999e+01
-9.9900000000000002e+00 9.9900000000000002e+00
-3.3608111864168748e+01 1.6481111863889097e+01
ITEM: ATOMS id type element mass x y z vx vy vz ix iy iz
1630 15 C 197 -8.32459 -1.77636e-15 -31.8394 0 0 0 0 0 0
1684 15 C 197 -0.832459 -1.44186 -31.8394 0 0 0 0 0 0
1703 15 C 197 -5.82721 -1.44186 -31.8394 0 0 0 0 0 0
1704 15 C 197 -3.32984 -2.88372 -31.8394 0 0 0 0 0 0
1705 15 C 197 -5.82721 -4.32558 -31.8394 0 0 0 0 0 0
1706 15 C 197 -3.32984 -1.77636e-15 -31.8394 0 0 0 0 0 0
1708 15 C 197 -1.66492 -1.77636e-15 -29.8268 0 0 0 0 0 0
1709 15 C 197 -4.1623 -1.44186 -29.8268 0 0 0 0 0 0
1721 15 C 197 -8.32459 -5.76745 -31.8394 0 0 0 0 0 0
1722 15 C 197 -8.32459 -2.88372 -31.8394 0 0 0 0 0 0
1723 15 C 197 -9.15705 -1.44186 -29.8268 0 0 0 0 0 0
1724 15 C 197 -6.65967 -2.88372 -29.8268 0 0 0 0 0 0
1725 15 C 197 -9.15705 -4.32558 -29.8268 0 0 0 0 0 0
1726 15 C 197 -6.65967 -1.77636e-15 -29.8268 0 0 0 0 0 0
1774 15 C 197 -0.832459 -4.32558 -31.8394 0 0 0 0 0 0
1776 15 C 197 -0.832459 -7.20931 -31.8394 0 0 0 0 0 0
1791 15 C 197 -5.82721 -7.20931 -31.8394 0 0 0 0 0 0
1792 15 C 197 -3.32984 -8.65117 -31.8394 0 0 0 0 0 0
1793 15 C 197 -3.32984 -5.76745 -31.8394 0 0 0 0 0 0
1794 15 C 197 -4.1623 -4.32558 -29.8268 0 0 0 0 0 0
1795 15 C 197 -1.66492 -5.76745 -29.8268 0 0 0 0 0 0
1796 15 C 197 -4.1623 -7.20931 -29.8268 0 0 0 0 0 0
1797 15 C 197 -1.66492 -2.88372 -29.8268 0 0 0 0 0 0
1806 15 C 197 -8.32459 -8.65117 -31.8394 0 0 0 0 0 0
1807 15 C 197 -9.15705 -7.20931 -29.8268 0 0 0 0 0 0
1808 15 C 197 -6.65967 -8.65117 -29.8268 0 0 0 0 0 0
1809 15 C 197 -6.65967 -5.76745 -29.8268 0 0 0 0 0 0
1854 15 C 197 -1.66492 -8.65117 -29.8268 0 0 0 0 0 0
1728 15 C 197 -4.99475 -1.77636e-15 -27.8143 0 0 0 0 0 0
1729 15 C 197 -7.49213 -1.44186 -27.8143 0 0 0 0 0 0
1735 15 C 197 -9.98951 -2.88372 -27.8143 0 0 0 0 0 0
1736 15 C 197 -9.98951 -1.77636e-15 -27.8143 0 0 0 0 0 0
1798 15 C 197 -2.49738 -1.44186 -27.8143 0 0 0 0 0 0
1799 15 C 197 -1.77636e-15 -2.88372 -27.8143 0 0 0 0 0 0
1800 15 C 197 -2.49738 -4.32558 -27.8143 0 0 0 0 0 0
1810 15 C 197 -7.49213 -4.32558 -27.8143 0 0 0 0 0 0
1811 15 C 197 -4.99475 -5.76745 -27.8143 0 0 0 0 0 0
1812 15 C 197 -7.49213 -7.20931 -27.8143 0 0 0 0 0 0
1813 15 C 197 -4.99475 -2.88372 -27.8143 0 0 0 0 0 0
1818 15 C 197 -9.98951 -8.65117 -27.8143 0 0 0 0 0 0
1819 15 C 197 -9.98951 -5.76745 -27.8143 0 0 0 0 0 0
1855 15 C 197 -2.49738 -7.20931 -27.8143 0 0 0 0 0 0
1856 15 C 197 -1.77636e-15 -8.65117 -27.8143 0 0 0 0 0 0
1857 15 C 197 -1.77636e-15 -5.76745 -27.8143 0 0 0 0 0 0
1862 15 C 197 -4.99475 -8.65117 -27.8143 0 0 0 0 0 0
1683 15 C 197 1.66492 -1.77636e-15 -31.8394 0 0 0 0 0 0
1748 15 C 197 9.15705 -1.44186 -31.8394 0 0 0 0 0 0
1756 15 C 197 4.1623 -1.44186 -31.8394 0 0 0 0 0 0
1757 15 C 197 6.65967 -2.88372 -31.8394 0 0 0 0 0 0
1758 15 C 197 4.1623 -4.32558 -31.8394 0 0 0 0 0 0
1759 15 C 197 6.65967 -1.77636e-15 -31.8394 0 0 0 0 0 0
1761 15 C 197 8.32459 -1.77636e-15 -29.8268 0 0 0 0 0 0
1762 15 C 197 5.82721 -1.44186 -29.8268 0 0 0 0 0 0
1775 15 C 197 1.66492 -5.76745 -31.8394 0 0 0 0 0 0
1777 15 C 197 1.66492 -2.88372 -31.8394 0 0 0 0 0 0
1778 15 C 197 0.832459 -1.44186 -29.8268 0 0 0 0 0 0
1779 15 C 197 3.32984 -2.88372 -29.8268 0 0 0 0 0 0
1780 15 C 197 0.832459 -4.32558 -29.8268 0 0 0 0 0 0
1781 15 C 197 3.32984 -1.77636e-15 -29.8268 0 0 0 0 0 0
1826 15 C 197 9.15705 -4.32558 -31.8394 0 0 0 0 0 0
1827 15 C 197 9.15705 -7.20931 -31.8394 0 0 0 0 0 0
1829 15 C 197 4.1623 -7.20931 -31.8394 0 0 0 0 0 0
1830 15 C 197 6.65967 -8.65117 -31.8394 0 0 0 0 0 0
1831 15 C 197 6.65967 -5.76745 -31.8394 0 0 0 0 0 0
1832 15 C 197 5.82721 -4.32558 -29.8268 0 0 0 0 0 0
1833 15 C 197 8.32459 -5.76745 -29.8268 0 0 0 0 0 0
1834 15 C 197 5.82721 -7.20931 -29.8268 0 0 0 0 0 0
1835 15 C 197 8.32459 -2.88372 -29.8268 0 0 0 0 0 0
1842 15 C 197 1.66492 -8.65117 -31.8394 0 0 0 0 0 0
1843 15 C 197 0.832459 -7.20931 -29.8268 0 0 0 0 0 0
1844 15 C 197 3.32984 -8.65117 -29.8268 0 0 0 0 0 0
1845 15 C 197 3.32984 -5.76745 -29.8268 0 0 0 0 0 0
1867 15 C 197 8.32459 -8.65117 -29.8268 0 0 0 0 0 0
1783 15 C 197 4.99475 -1.77636e-15 -27.8143 0 0 0 0 0 0
1784 15 C 197 2.49738 -1.44186 -27.8143 0 0 0 0 0 0
1801 15 C 197 0 -1.77636e-15 -27.8143 0 0 0 0 0 0
1836 15 C 197 7.49213 -1.44186 -27.8143 0 0 0 0 0 0
1837 15 C 197 9.98951 -2.88372 -27.8143 0 0 0 0 0 0
1838 15 C 197 7.49213 -4.32558 -27.8143 0 0 0 0 0 0
1839 15 C 197 9.98951 -1.77636e-15 -27.8143 0 0 0 0 0 0
1846 15 C 197 2.49738 -4.32558 -27.8143 0 0 0 0 0 0
1847 15 C 197 4.99475 -5.76745 -27.8143 0 0 0 0 0 0
1848 15 C 197 2.49738 -7.20931 -27.8143 0 0 0 0 0 0
1849 15 C 197 4.99475 -2.88372 -27.8143 0 0 0 0 0 0
1868 15 C 197 7.49213 -7.20931 -27.8143 0 0 0 0 0 0
1869 15 C 197 9.98951 -8.65117 -27.8143 0 0 0 0 0 0
1870 15 C 197 9.98951 -5.76745 -27.8143 0 0 0 0 0 0
1873 15 C 197 4.99475 -8.65117 -27.8143 0 0 0 0 0 0
1571 15 C 197 -3.32984 8.65117 -31.8394 0 0 0 0 0 0
1572 15 C 197 -5.82721 7.20931 -31.8394 0 0 0 0 0 0
1575 15 C 197 -8.32459 5.76745 -31.8394 0 0 0 0 0 0
1576 15 C 197 -8.32459 8.65117 -31.8394 0 0 0 0 0 0
1577 15 C 197 -6.65967 8.65117 -29.8268 0 0 0 0 0 0
1578 15 C 197 -9.15705 7.20931 -29.8268 0 0 0 0 0 0
1604 15 C 197 -0.832459 7.20931 -31.8394 0 0 0 0 0 0
1606 15 C 197 -0.832459 4.32558 -31.8394 0 0 0 0 0 0
1618 15 C 197 -5.82721 4.32558 -31.8394 0 0 0 0 0 0
1619 15 C 197 -3.32984 2.88372 -31.8394 0 0 0 0 0 0
1620 15 C 197 -5.82721 1.44186 -31.8394 0 0 0 0 0 0
1621 15 C 197 -3.32984 5.76745 -31.8394 0 0 0 0 0 0
1622 15 C 197 -4.1623 7.20931 -29.8268 0 0 0 0 0 0
1623 15 C 197 -1.66492 5.76745 -29.8268 0 0 0 0 0 0
1624 15 C 197 -4.1623 4.32558 -29.8268 0 0 0 0 0 0
1625 15 C 197 -1.66492 8.65117 -29.8268 0 0 0 0 0 0
1631 15 C 197 -8.32459 2.88372 -31.8394 0 0 0 0 0 0
1632 15 C 197 -9.15705 4.32558 -29.8268 0 0 0 0 0 0
1633 15 C 197 -6.65967 2.88372 -29.8268 0 0 0 0 0 0
1634 15 C 197 -9.15705 1.44186 -29.8268 0 0 0 0 0 0
1635 15 C 197 -6.65967 5.76745 -29.8268 0 0 0 0 0 0
1682 15 C 197 -0.832459 1.44186 -31.8394 0 0 0 0 0 0
1707 15 C 197 -4.1623 1.44186 -29.8268 0 0 0 0 0 0
1710 15 C 197 -1.66492 2.88372 -29.8268 0 0 0 0 0 0
1579 15 C 197 -9.98951 8.65117 -27.8143 0 0 0 0 0 0
1626 15 C 197 -1.77636e-15 8.65117 -27.8143 0 0 0 0 0 0
1627 15 C 197 -2.49738 7.20931 -27.8143 0 0 0 0 0 0
1636 15 C 197 -7.49213 7.20931 -27.8143 0 0 0 0 0 0
1637 15 C 197 -4.99475 5.76745 -27.8143 0 0 0 0 0 0
1638 15 C 197 -7.49213 4.32558 -27.8143 0 0 0 0 0 0
1639 15 C 197 -4.99475 8.65117 -27.8143 0 0 0 0 0 0
1642 15 C 197 -9.98951 2.88372 -27.8143 0 0 0 0 0 0
1643 15 C 197 -9.98951 5.76745 -27.8143 0 0 0 0 0 0
1711 15 C 197 -2.49738 4.32558 -27.8143 0 0 0 0 0 0
1712 15 C 197 -1.77636e-15 2.88372 -27.8143 0 0 0 0 0 0
1713 15 C 197 -2.49738 1.44186 -27.8143 0 0 0 0 0 0
1714 15 C 197 -1.77636e-15 5.76745 -27.8143 0 0 0 0 0 0
1727 15 C 197 -7.49213 1.44186 -27.8143 0 0 0 0 0 0
1730 15 C 197 -4.99475 2.88372 -27.8143 0 0 0 0 0 0
1594 15 C 197 6.65967 8.65117 -31.8394 0 0 0 0 0 0
1595 15 C 197 4.1623 7.20931 -31.8394 0 0 0 0 0 0
1605 15 C 197 1.66492 5.76745 -31.8394 0 0 0 0 0 0
1607 15 C 197 1.66492 8.65117 -31.8394 0 0 0 0 0 0
1608 15 C 197 3.32984 8.65117 -29.8268 0 0 0 0 0 0
1609 15 C 197 0.832459 7.20931 -29.8268 0 0 0 0 0 0
1654 15 C 197 9.15705 7.20931 -31.8394 0 0 0 0 0 0
1655 15 C 197 9.15705 4.32558 -31.8394 0 0 0 0 0 0
1664 15 C 197 4.1623 4.32558 -31.8394 0 0 0 0 0 0
1665 15 C 197 6.65967 2.88372 -31.8394 0 0 0 0 0 0
1666 15 C 197 4.1623 1.44186 -31.8394 0 0 0 0 0 0
1667 15 C 197 6.65967 5.76745 -31.8394 0 0 0 0 0 0
1668 15 C 197 5.82721 7.20931 -29.8268 0 0 0 0 0 0
1669 15 C 197 8.32459 5.76745 -29.8268 0 0 0 0 0 0
1670 15 C 197 5.82721 4.32558 -29.8268 0 0 0 0 0 0
1671 15 C 197 8.32459 8.65117 -29.8268 0 0 0 0 0 0
1685 15 C 197 1.66492 2.88372 -31.8394 0 0 0 0 0 0
1686 15 C 197 0.832459 4.32558 -29.8268 0 0 0 0 0 0
1687 15 C 197 3.32984 2.88372 -29.8268 0 0 0 0 0 0
1688 15 C 197 0.832459 1.44186 -29.8268 0 0 0 0 0 0
1689 15 C 197 3.32984 5.76745 -29.8268 0 0 0 0 0 0
1747 15 C 197 9.15705 1.44186 -31.8394 0 0 0 0 0 0
1760 15 C 197 5.82721 1.44186 -29.8268 0 0 0 0 0 0
1763 15 C 197 8.32459 2.88372 -29.8268 0 0 0 0 0 0
1672 15 C 197 9.98951 8.65117 -27.8143 0 0 0 0 0 0
1673 15 C 197 7.49213 7.20931 -27.8143 0 0 0 0 0 0
1690 15 C 197 2.49738 7.20931 -27.8143 0 0 0 0 0 0
1691 15 C 197 4.99475 5.76745 -27.8143 0 0 0 0 0 0
1692 15 C 197 2.49738 4.32558 -27.8143 0 0 0 0 0 0
1693 15 C 197 4.99475 8.65117 -27.8143 0 0 0 0 0 0
1764 15 C 197 7.49213 4.32558 -27.8143 0 0 0 0 0 0
1765 15 C 197 9.98951 2.88372 -27.8143 0 0 0 0 0 0
1766 15 C 197 7.49213 1.44186 -27.8143 0 0 0 0 0 0
1767 15 C 197 9.98951 5.76745 -27.8143 0 0 0 0 0 0
1782 15 C 197 2.49738 1.44186 -27.8143 0 0 0 0 0 0
1785 15 C 197 4.99475 2.88372 -27.8143 0 0 0 0 0 0
1737 15 C 197 -8.32459 -1.77636e-15 -25.8017 0 0 0 0 0 0
1804 15 C 197 -0.832459 -1.44186 -25.8017 0 0 0 0 0 0
1814 15 C 197 -5.82721 -1.44186 -25.8017 0 0 0 0 0 0
1815 15 C 197 -3.32984 -2.88372 -25.8017 0 0 0 0 0 0
1816 15 C 197 -5.82721 -4.32558 -25.8017 0 0 0 0 0 0
1817 15 C 197 -3.32984 -1.77636e-15 -25.8017 0 0 0 0 0 0
1820 15 C 197 -8.32459 -5.76745 -25.8017 0 0 0 0 0 0
1821 15 C 197 -8.32459 -2.88372 -25.8017 0 0 0 0 0 0
1858 15 C 197 -0.832459 -4.32558 -25.8017 0 0 0 0 0 0
1860 15 C 197 -0.832459 -7.20931 -25.8017 0 0 0 0 0 0
1863 15 C 197 -5.82721 -7.20931 -25.8017 0 0 0 0 0 0
1864 15 C 197 -3.32984 -8.65117 -25.8017 0 0 0 0 0 0
1865 15 C 197 -3.32984 -5.76745 -25.8017 0 0 0 0 0 0
1866 15 C 197 -8.32459 -8.65117 -25.8017 0 0 0 0 0 0
26 11 C 15.999 -1.56745 -5.12285 -23.1616 0.000457027 0.00571692 0.00616612 0 0 0
27 11 C 15.999 -1.47963 -3.00521 -22.5913 -0.000923307 -0.00305257 -0.00102155 0 0 0
115 12 C 15.999 -2.02459 -7.75876 -23.1991 0.00471545 -0.00547443 -0.000974696 0 0 0
117 4 C 1.008 -1.33802 -8.23706 -23.664 0.0233591 0.0145714 0.00594211 0 0 0
116 4 C 1.008 -1.77389 -6.83865 -23.2814 -0.0242819 0.00222942 -0.00323893 0 0 0
64 12 C 15.999 -10.0885 -5.60647 -22.8246 -0.00334325 -0.00349267 -0.00370547 0 0 0
126 4 C 1.008 -3.19793 -4.51311 -23.3873 -0.000118979 0.0174916 -0.000715169 0 0 0
124 12 C 15.999 -4.08374 -4.16765 -23.2767 -0.00634988 0.00147645 -0.000621818 0 0 0
125 4 C 1.008 -3.968 -3.21826 -23.2382 -0.0220972 0.00286651 0.0128563 0 0 0
1189 12 C 15.999 -6.70907 -3.2674 -22.881 0.000288334 0.000270499 -0.000859177 1 0 0
1191 4 C 1.008 -5.91278 -3.78576 -22.765 0.0112404 0.0182799 0.00453463 1 0 0
1190 4 C 1.008 -6.5524 -2.76203 -23.6786 -0.00542217 0.00439259 0.000635827 1 0 0
602 4 C 1.008 -9.54342 -3.79234 -23.1019 -0.0194408 -0.00148443 -0.00516367 1 0 0
886 12 C 15.999 -4.31292 -1.37358 -23.3298 -0.00343323 -0.00319803 -0.00790986 0 -1 0
603 4 C 1.008 -8.5298 -2.82434 -22.5296 0.00328871 -0.0287548 0.000641464 1 0 0
901 12 C 15.999 -6.66197 0.121929 -23.1 0.00055859 0.00337148 -0.00161013 0 0 0
119 4 C 1.008 -4.38586 -2.17826 -21.5664 -0.0221379 0.0139164 0.00762145 0 0 0
118 12 C 15.999 -4.35712 -2.54063 -20.681 0.000865241 -0.00270026 5.85688e-05 0 0 0
902 4 C 1.008 -6.99731 -0.107034 -22.2332 0.00328591 -0.0287213 -0.00904636 0 0 0
120 4 C 1.008 -4.18507 -3.47351 -20.8089 -0.00379478 -0.000538254 -0.0219618 0 0 0
895 12 C 15.999 -7.59126 -6.81081 -23.0433 0.000517067 0.00708454 0.00844518 0 0 0
897 4 C 1.008 -6.72122 -6.61071 -22.6981 0.00950172 -0.0127348 -0.00271159 0 0 0
896 4 C 1.008 -7.44348 -7.51807 -23.6712 -0.0210442 0.0168716 -0.00763494 0 0 0
760 12 C 15.999 -5.43237 -9.79813 -21.391 0.00339393 -0.00438357 0.00411764 0 0 0
168 4 C 1.008 -3.14981 -3.88804 -18.4451 -0.0253858 -0.010962 -0.00303866 1 0 0
25 6 C 12.011 -1.24789 -4.24407 -22.3271 0.002379 0.00157999 0.000712207 0 0 0
762 4 C 1.008 -5.84337 -8.96395 -21.6178 0.00988803 -0.000915255 0.00511367 0 0 0
6 2 C 1.008 -1.46988 -4.27101 -20.1948 -0.0216187 -0.00794939 -0.0333668 0 0 0
1122 4 C 1.008 -3.99529 -7.37621 -22.9249 0.0124658 0.0213354 0.0193558 -1 1 0
1120 12 C 15.999 -4.82023 -6.89929 -22.834 0.00157202 0.00551344 0.00359884 -1 1 0
1121 4 C 1.008 -4.60436 -5.99834 -23.0746 -0.0167828 0.00449967 -0.0166346 -1 1 0
729 4 C 1.008 -4.10297 -6.22543 -20.3487 -0.00596276 0.0134977 -0.0142607 -1 1 0
728 4 C 1.008 -4.35098 -5.40747 -19.0991 -0.00776498 0.0110229 -0.0130009 -1 1 0
727 12 C 15.999 -3.78287 -5.46234 -19.8676 0.00562947 0.0011165 -0.00235744 -1 1 0
761 4 C 1.008 -4.62149 -9.81224 -21.8994 -0.0086708 -0.021081 -0.0146827 0 0 0
860 4 C 1.008 -6.8039 -3.26519 -20.1627 -0.0088322 -0.00174921 -0.00151152 0 0 0
859 12 C 15.999 -7.00806 -3.44704 -19.2453 -0.00128826 0.00574981 0.00166064 0 0 0
4 3 C 1.008 -1.42133 -6.57253 -20.7559 -0.012837 0.0073267 0.0229166 0 0 0
503 4 C 1.008 -9.15027 -8.15903 -22.5317 -0.0079052 -0.000114336 -0.00132786 0 1 0
5 7 C 12.011 -0.760358 -4.51059 -20.9512 0.00119051 0.0106039 0.00513561 0 0 0
1 10 C 14.007 -0.507777 -6.01937 -20.7833 0.00266715 -0.00105296 0.00465788 0 0 0
502 12 C 15.999 -9.44011 -9.03123 -22.7991 -0.00334437 -0.00257078 0.00173611 0 1 0
588 4 C 1.008 -2.41757 -1.39572 -20.035 -0.0113719 0.0163401 0.000137236 -1 -1 0
601 12 C 15.999 -9.38788 -2.85977 -22.9523 0.00170503 -0.0061738 0.00199363 1 0 0
888 4 C 1.008 -3.58975 -0.838234 -23.6564 -0.00638445 0.00862028 0.0048922 0 -1 0
587 4 C 1.008 -1.93755 -1.78964 -21.4157 -0.0170964 0.000119621 0.00277099 -1 -1 0
504 4 C 1.008 -8.81139 -9.62799 -22.3932 -0.00506021 0.00166815 0.0106087 0 1 0
586 12 C 15.999 -1.83746 -1.11594 -20.7432 0.00303383 -0.00397296 0.003918 -1 -1 0
861 4 C 1.008 -7.56439 -2.7169 -18.974 -0.00875351 0.00183747 -0.00311279 0 0 0
369 4 C 1.008 -7.47605 -0.568926 -19.5176 0.0142579 -0.00683491 -0.00948204 0 -1 0
3 3 C 1.008 0.0488782 -6.48582 -21.5414 0.0192903 0.00910499 0.0151922 0 0 0
2 3 C 1.008 -0.0908199 -6.2031 -19.8746 0.00278353 -0.0177265 -0.0144038 0 0 0
478 12 C 15.999 -5.97303 -9.74267 -24.4188 0.00172669 -0.00166296 0.00335874 0 1 0
480 4 C 1.008 -5.86013 9.89934 -25.3072 0.00173514 -0.0022739 0.00359157 0 0 0
1486 12 C 15.999 -0.64396 9.95318 -24.2028 -0.00100114 0.000124741 -0.00840634 0 -1 0
346 12 C 15.999 -3.34086 -9.98662 -23.0958 -0.00649154 -0.00173154 0.0052194 -1 1 0
347 4 C 1.008 -2.73385 -9.27331 -23.2932 -0.0091441 -0.00324475 -0.0084814 -1 1 0
1517 4 C 1.008 -6.49473 -4.92982 -18.4346 0.0113773 -0.00261949 -0.00427994 0 1 0
945 4 C 1.008 -9.50101 -7.13618 -20.0748 -0.0194106 -0.0237015 0.0148441 0 0 0
65 4 C 1.008 -9.19343 -5.90389 -22.9877 -0.00699888 -0.0135329 -0.00540473 0 0 0
66 4 C 1.008 9.55593 -6.37518 -22.9974 -0.013835 0.00770957 -0.020483 -1 0 0
1487 4 C 1.008 0.0684518 9.97507 -23.5639 -0.00761775 0.0102661 -0.00137072 0 -1 0
23 3 C 1.008 0.283104 -2.09033 -22.9686 -0.0189328 -0.00772859 0.00521431 0 0 0
1146 4 C 1.008 0.724163 -6.93756 -23.9519 0.0178239 0.0227707 -0.00484724 0 0 0
1031 4 C 1.008 9.78721 -1.41825 -22.9022 -0.00768816 -0.021155 -0.0051314 -1 0 0
1144 12 C 15.999 0.913205 -6.93835 -23.0136 0.00056884 0.00869081 -0.00139322 0 0 0
1030 12 C 15.999 8.93125 -1.02261 -22.7377 0.00103967 -0.00247031 -0.00497077 -1 0 0
1032 4 C 1.008 8.70816 -1.29464 -21.8475 -0.0043401 0.00316013 -0.0045962 -1 0 0
1145 4 C 1.008 1.69867 -7.47859 -22.9275 -0.00413576 0.0029569 0.00558609 0 0 0
9 1 C 1.008 0.515643 -2.79283 -20.7591 -0.008202 -0.00498019 0.018551 0 0 0
24 3 C 1.008 0.482989 -0.460866 -23.2006 -0.0282454 -0.00831933 0.000860538 0 0 0
7 8 C 12.011 0.622107 -3.88783 -20.6064 0.000613315 0.00138533 -0.00241766 0 0 0
14 1 C 1.008 1.10489 -3.77746 -23.2319 -0.0131738 -0.00908083 -0.0120197 0 0 0
11 1 C 1.008 2.00925 -5.49845 -21.0748 0.02839 -4.02486e-05 0.00623843 0 0 0
10 8 C 12.011 1.96457 -4.3939 -21.2528 -0.00590831 -0.00504912 0.0028912 0 0 0
15 1 C 1.008 2.76374 -4.66121 -23.3002 -0.0121406 -0.00527948 -0.00775239 0 0 0
13 8 C 12.011 2.07423 -3.94919 -22.7618 0.00449706 0.00389193 0.00204638 0 0 0
12 1 C 1.008 2.88753 -4.03251 -20.7392 -0.0135471 0.016347 -0.0103574 0 0 0
1803 15 C 197 1.66492 -1.77636e-15 -25.8017 0 0 0 0 0 0
1841 15 C 197 9.15705 -1.44186 -25.8017 0 0 0 0 0 0
1850 15 C 197 4.1623 -1.44186 -25.8017 0 0 0 0 0 0
1851 15 C 197 6.65967 -2.88372 -25.8017 0 0 0 0 0 0
1852 15 C 197 4.1623 -4.32558 -25.8017 0 0 0 0 0 0
1853 15 C 197 6.65967 -1.77636e-15 -25.8017 0 0 0 0 0 0
1859 15 C 197 1.66492 -5.76745 -25.8017 0 0 0 0 0 0
1861 15 C 197 1.66492 -2.88372 -25.8017 0 0 0 0 0 0
1871 15 C 197 9.15705 -4.32558 -25.8017 0 0 0 0 0 0
1872 15 C 197 9.15705 -7.20931 -25.8017 0 0 0 0 0 0
1874 15 C 197 4.1623 -7.20931 -25.8017 0 0 0 0 0 0
1875 15 C 197 6.65967 -8.65117 -25.8017 0 0 0 0 0 0
1876 15 C 197 6.65967 -5.76745 -25.8017 0 0 0 0 0 0
1877 15 C 197 1.66492 -8.65117 -25.8017 0 0 0 0 0 0
18 5 C 12.011 2.17967 -1.39785 -22.9372 0.000503449 -0.00206387 -0.000310967 0 0 0
22 9 C 14.007 0.889069 -1.29944 -23.0154 -0.000851484 0.0075434 0.00422532 0 0 0
16 9 C 14.007 2.76486 -2.60756 -22.787 -0.00118437 -0.00324876 0.00407333 0 0 0
17 3 C 1.008 3.76118 -2.54517 -22.7604 0.0309421 0.00354478 0.00577331 0 0 0
19 9 C 14.007 2.98693 -0.342036 -23.1074 -0.00607163 -0.00153982 -0.00411619 0 0 0
83 4 C 1.008 8.05677 -3.56804 -23.2782 -0.00215989 -0.00573338 -0.0299367 0 0 0
82 12 C 15.999 7.48641 -4.33317 -23.204 -0.00317898 -0.00254922 -0.00523063 0 0 0
84 4 C 1.008 8.02376 -4.99115 -22.7629 0.00351499 0.00325312 -0.00472687 0 0 0
88 12 C 15.999 3.3997 -7.45602 -21.9362 -0.00117356 0.00540597 0.00266736 -1 1 0
89 4 C 1.008 4.30595 -7.18248 -22.0781 0.000533995 -0.00642913 -0.00925638 -1 1 0
90 4 C 1.008 3.39572 -7.82438 -21.0527 0.0131441 -0.0260564 -0.0103328 -1 1 0
21 3 C 1.008 4.00648 -0.444619 -22.9642 -0.00977636 0.0119835 0.00518275 0 0 0
1289 4 C 1.008 6.16196 -2.98624 -23.3311 -0.0073576 -0.0151112 0.00959295 -1 0 0
1290 4 C 1.008 5.89661 -2.35057 -21.9829 0.00672584 0.00659037 0.00212567 -1 0 0
1288 12 C 15.999 5.51534 -2.46686 -22.8532 0.0034705 0.00352135 0.0039595 -1 0 0
654 4 C 1.008 8.27644 -3.59501 -19.2574 0.0048818 -0.0136857 -0.00119296 0 0 0
652 12 C 15.999 7.56469 -4.18239 -19.0032 -0.008277 0.00346947 0.00153619 0 0 0
1104 4 C 1.008 7.24718 -6.96804 -22.7764 -0.0054724 -0.00842656 -0.0119659 0 0 0
145 12 C 15.999 5.85356 -6.35249 -22.1242 0.00517406 -0.00416167 0.00305203 0 0 0
740 4 C 1.008 7.60159 -0.0442261 -22.8911 -0.01169 -0.00807407 -0.00054965 0 -1 0
147 4 C 1.008 5.84212 -6.15901 -21.1869 0.0091206 -0.00620944 0.00352189 0 0 0
1102 12 C 15.999 8.11161 -7.3113 -23.0026 -5.04012e-05 -0.000764023 -0.00287823 0 0 0
686 4 C 1.008 3.02188 -9.32883 -19.1655 0.00204325 -0.00520766 0.00256485 0 0 0
1103 4 C 1.008 8.00906 -8.26232 -22.9669 0.00471182 -0.00178411 -0.0163545 0 0 0
8 1 C 1.008 0.619622 -4.00578 -19.5224 -0.0165045 0.00816435 -0.0262235 0 0 0
298 12 C 15.999 7.0051 -9.6861 -22.8727 0.00269135 0.00452541 -0.000286431 0 2 0
146 4 C 1.008 5.98054 -5.50138 -22.5434 -0.0111789 -0.00133851 0.00380337 0 0 0
300 4 C 1.008 6.86672 -9.52618 -21.9392 -0.00822315 -0.0106567 0.000709418 0 2 0
1106 4 C 1.008 2.46375 -9.37532 -22.3737 0.00211209 0.00491462 -0.0015399 0 1 0
685 12 C 15.999 3.01962 -8.3724 -19.2039 0.000630476 -0.00542222 -0.00282344 0 0 0
1277 4 C 1.008 6.65624 -7.80583 -20.2727 -0.00671624 -0.00552638 -0.0041065 -1 0 0
286 12 C 15.999 5.82262 -6.34487 -19.4686 -5.95039e-05 -0.00204581 0.0111017 0 -1 0
1278 4 C 1.008 7.42697 -8.80642 -19.438 -0.0181762 -0.00528214 0.00679472 -1 0 0
1276 12 C 15.999 6.96939 -8.71036 -20.2732 -0.00434504 -0.00470755 -0.000741543 -1 0 0
287 4 C 1.008 6.27315 -5.52102 -19.2828 0.0282449 -0.0144262 -0.00276869 0 -1 0
1362 4 C 1.008 0.127511 9.21506 -19.8226 0.0190389 -0.000889845 0.00478511 0 -1 0
299 4 C 1.008 6.12511 -9.6855 -23.2493 0.00520078 -0.0165278 -0.00617139 0 2 0
1425 4 C 1.008 8.61622 -9.31502 -25.2451 0.00333406 0.00456217 -0.00441029 0 0 0
1105 12 C 15.999 1.78125 -9.85677 -22.8412 0.00186401 0.00214157 0.00168042 0 1 0
1453 12 C 15.999 4.46219 -0.41972 -19.1119 0.00314116 -0.00244813 0.000903091 0 0 0
1361 4 C 1.008 0.842962 9.85114 -20.9954 -0.0334337 -0.00968482 -0.0319424 0 -1 0
1360 12 C 15.999 0.171445 -9.95769 -20.3351 -0.00159857 -0.00357124 -0.00118301 0 0 0
487 12 C 15.999 9.61264 -2.1776 -19.8777 -0.000917262 0.00061593 -0.00953728 -1 0 0
687 4 C 1.008 2.45577 -8.10444 -18.4783 0.00607797 -0.00198126 0.000138192 0 0 0
488 4 C 1.008 9.06197 -1.56784 -19.3866 0.00356336 -0.00165784 -0.00168722 -1 0 0
288 4 C 1.008 5.36753 -6.55854 -18.6541 0.0330637 0.00156261 0.030586 0 -1 0
489 4 C 1.008 -9.80551 -2.30549 -19.3234 0.00475937 -0.000894435 -0.0177717 0 0 0
1101 4 C 1.008 -0.126794 0.772131 -18.8982 -0.0122224 0.00319208 -0.00591725 1 -1 0
887 4 C 1.008 -5.07892 -0.802376 -23.3863 -0.00446935 -0.00214666 0.0168243 0 -1 0
903 4 C 1.008 -7.36261 0.637026 -23.5 -0.0212014 -0.0246313 0.000430215 0 0 0
1358 4 C 1.008 -1.96757 0.14438 -21.9801 -0.00351877 -0.00499551 -0.0188473 0 -1 0
160 12 C 15.999 -4.92727 0.641177 -20.2006 -0.00623419 0.00683814 0.000992844 0 -1 0
367 12 C 15.999 -7.71787 -0.185385 -20.3606 -0.00357171 -0.00138566 -0.00189918 0 -1 0
368 4 C 1.008 -8.67237 -0.120537 -20.3298 -0.00336696 -0.00691445 0.0164085 0 -1 0
1100 4 C 1.008 -0.178167 -0.0367154 -20.1769 -0.0079727 0.00674751 -0.00833607 1 -1 0
1500 4 C 1.008 -9.98623 1.91342 -22.8435 -0.00310637 0.00382805 -0.0174292 0 0 0
1359 4 C 1.008 -2.62207 1.05241 -22.9994 -0.00691112 0.0271859 0.0120549 0 -1 0
1357 12 C 15.999 -1.79571 0.900977 -22.5407 -0.000697506 0.00295658 -0.00726942 0 -1 0
348 4 C 1.008 -2.8103 9.19993 -23.1678 -0.0107112 -0.0032389 -0.00935841 -1 0 0
1488 4 C 1.008 -0.294101 9.4456 -24.935 0.0109827 -0.000878703 -0.00198915 0 -1 0
479 4 C 1.008 -5.16792 -9.98983 -23.9639 0.00161849 -0.00156515 0.00360343 0 1 0
1344 4 C 1.008 -1.07067 7.75877 -23.0946 0.00552094 -0.00597916 -0.000709429 0 0 0
1342 12 C 15.999 -2.0125 7.61164 -23.0077 0.00445813 0.00382507 0.00449197 0 0 0
1343 4 C 1.008 -2.09361 6.67467 -22.8295 -0.00403621 0.0054729 0.00934049 0 0 0
1299 4 C 1.008 -6.71105 8.73424 -22.2339 -0.000121474 -0.00849187 -0.000710094 0 -1 0
1297 12 C 15.999 -7.45138 8.52138 -22.8021 0.000982106 -0.00662774 -0.00284428 0 -1 0
1298 4 C 1.008 -7.30994 9.04878 -23.5882 0.0040938 -0.00629833 -0.00206221 0 -1 0
1127 4 C 1.008 -4.63166 1.79606 -21.8201 -0.0179269 -0.000900114 -0.0007204 0 0 0
1128 4 C 1.008 -5.19106 1.20842 -23.0982 0.00699176 -0.00775611 -0.0085049 0 0 0
1126 12 C 15.999 -4.42827 1.66745 -22.7466 -0.00159755 -0.00230926 0.00304843 0 0 0
383 4 C 1.008 -6.36663 6.2573 -22.6655 0.00293297 -0.00116933 0.00480594 1 -1 0
382 12 C 15.999 -6.83613 5.69668 -23.2831 0.00539193 0.00153993 0.000475141 1 -1 0
1640 15 C 197 -3.32984 8.65117 -25.8017 0 0 0 0 0 0
1641 15 C 197 -5.82721 7.20931 -25.8017 0 0 0 0 0 0
1644 15 C 197 -8.32459 5.76745 -25.8017 0 0 0 0 0 0
1645 15 C 197 -8.32459 8.65117 -25.8017 0 0 0 0 0 0
1715 15 C 197 -0.832459 7.20931 -25.8017 0 0 0 0 0 0
1717 15 C 197 -0.832459 4.32558 -25.8017 0 0 0 0 0 0
1731 15 C 197 -5.82721 4.32558 -25.8017 0 0 0 0 0 0
1732 15 C 197 -3.32984 2.88372 -25.8017 0 0 0 0 0 0
1733 15 C 197 -5.82721 1.44186 -25.8017 0 0 0 0 0 0
1734 15 C 197 -3.32984 5.76745 -25.8017 0 0 0 0 0 0
1738 15 C 197 -8.32459 2.88372 -25.8017 0 0 0 0 0 0
1802 15 C 197 -0.832459 1.44186 -25.8017 0 0 0 0 0 0
384 4 C 1.008 -6.98536 6.25366 -24.0472 -0.0130915 0.0123445 0.0119731 1 -1 0
996 4 C 1.008 -2.02439 4.31579 -22.9178 0.00179158 -0.00311014 0.00576902 0 0 0
994 12 C 15.999 -2.78587 4.76032 -22.5453 0.00270971 0.0042923 -0.00118791 0 0 0
995 4 C 1.008 -3.53821 4.30073 -22.9181 0.00176298 -0.000578886 0.00675384 0 0 0
684 4 C 1.008 -7.1358 2.87013 -24.1489 -0.0111355 0.00944323 0.00726661 1 -1 0
682 12 C 15.999 -7.00214 3.03416 -23.2154 -0.00679934 0.00549757 0.00733805 1 -1 0
1346 4 C 1.008 -4.24432 7.63689 -22.327 -0.00790309 0.00952128 -0.0138463 0 -1 0
1347 4 C 1.008 -4.05064 6.14734 -22.5157 0.0112413 0.01008 0.00142291 0 -1 0
1345 12 C 15.999 -4.72212 6.80765 -22.3444 0.00386198 0.00242037 0.00204319 0 -1 0
683 4 C 1.008 -6.90107 3.98381 -23.1507 -0.0153068 0.00609297 0.0119928 1 -1 0
472 12 C 15.999 -6.23389 6.89719 -17.9006 0.00881525 -0.00110272 0.00858149 0 -1 0
230 4 C 1.008 -7.95769 2.20148 -20.3002 0.0116286 -0.00659441 -0.000568069 0 0 0
1448 4 C 1.008 -9.28961 7.75698 -22.409 -0.00975007 0.00037859 0.0183454 0 -1 0
231 4 C 1.008 -7.08482 2.73614 -21.4156 -0.000124447 -0.00496245 -0.00898152 0 0 0
229 12 C 15.999 -7.30597 2.87502 -20.4948 0.00541852 -0.00273207 -0.00798508 0 0 0
161 4 C 1.008 -5.85307 0.573612 -19.967 0.000772253 -0.000614015 0.0267526 0 -1 0
474 4 C 1.008 -5.39811 6.6541 -18.2988 0.00381962 -0.0101569 0.00363034 0 -1 0
714 4 C 1.008 -7.69784 5.76108 -18.6351 0.00540827 0.0051146 -0.00653284 0 -1 0
245 4 C 1.008 -3.67918 5.6454 -19.4417 -0.0158113 -0.0123761 0.00586356 1 -1 0
250 12 C 15.999 -9.45651 4.4008 -23.0333 -0.00137233 0.00085195 0.00843241 2 -1 0
251 4 C 1.008 -9.05295 5.18729 -23.4004 0.011509 -0.0138275 -0.00888109 2 -1 0
734 4 C 1.008 0.0500038 1.86256 -23.0906 0.000212182 0.0106378 -0.0146589 0 0 0
510 4 C 1.008 -9.0066 -9.67761 -19.435 0.0119494 -0.00971505 0.000551961 0 0 0
508 12 C 15.999 -8.42887 -8.98053 -19.7457 0.00206791 -0.00105959 0.00161213 0 0 0
244 12 C 15.999 -4.02844 6.53297 -19.5222 0.00595108 -0.00463667 -0.00312802 1 -1 0
1447 12 C 15.999 -10.0023 7.30072 -22.8564 -0.0020203 0.00496995 0.00129982 0 -1 0
1449 4 C 1.008 9.9127 6.62027 -22.241 -0.0267126 0.0121121 -0.00174798 -1 -1 0
608 4 C 1.008 -0.313365 2.05325 -20.2857 -6.35286e-05 -0.010309 -0.0173637 0 0 0
609 4 C 1.008 -1.53241 2.1745 -21.1751 0.00187467 -0.000631829 -0.0187027 0 0 0
607 12 C 15.999 -0.923533 2.69427 -20.6504 -0.00470906 -0.00738005 -0.00442217 0 0 0
246 4 C 1.008 -4.44224 6.55071 -20.3852 0.0131204 -0.000872382 -0.00648837 1 -1 0
1498 12 C 15.999 -9.42855 1.18396 -23.1138 0.00382975 0.00239552 0.000806874 0 0 0
712 12 C 15.999 -8.30654 5.59518 -19.3549 -0.00332191 -0.00750136 0.00379922 0 -1 0
713 4 C 1.008 -8.03436 4.74859 -19.7091 -0.0045354 -0.0113977 0.0121792 0 -1 0
252 4 C 1.008 -8.78147 4.02667 -22.4671 -0.00916171 0.00480737 0.0203524 2 -1 0
1088 4 C 1.008 -2.57557 -9.01766 -19.5343 0.00574109 0.00145451 0.00454568 0 -1 0
813 4 C 1.008 -2.69119 3.54418 -20.2986 0.00288787 0.00114708 0.000973704 -1 0 0
977 4 C 1.008 -6.9284 5.32229 -16.8308 -0.0104406 0.0138086 0.013799 0 -1 0
1424 4 C 1.008 9.92335 -9.45868 -24.495 -0.00262477 0.0048202 0.00600256 0 0 0
1489 12 C 15.999 3.02307 8.95546 -19.3671 -0.000305379 0.00201061 -0.000459713 0 -1 0
733 12 C 15.999 0.998 1.7734 -22.9927 -0.00264511 -0.000237036 0.0032705 0 0 0
741 4 C 1.008 7.62053 1.46552 -23.0015 0.00829535 -0.00864399 -0.00487398 0 -1 0
782 4 C 1.008 8.71587 7.58037 -20.4805 0.000134207 -0.00236662 -0.00875166 -1 0 0
739 12 C 15.999 7.03414 0.725271 -22.8453 -0.00118494 -0.000305775 -0.000969392 0 -1 0
1423 12 C 15.999 9.19983 -9.96845 -24.8595 0.000650025 0.00463866 -0.000217428 0 0 0
1499 4 C 1.008 -10.0322 0.449911 -23.228 0.00483713 0.005626 -0.0252358 0 0 0
351 4 C 1.008 1.64232 7.142 -22.8321 0.00322395 0.0164044 -0.00693818 0 0 0
159 4 C 1.008 7.85989 3.61079 -23.0663 0.0135099 0.0111183 -0.0192136 0 -1 0
157 12 C 15.999 8.58173 2.98244 -23.0851 0.0102396 0.00669079 0.0047605 0 -1 0
1187 4 C 1.008 2.01665 1.29749 -20.1622 -0.0015301 0.0077687 0.0149298 -2 0 0
899 4 C 1.008 -3.65338 9.02148 -18.4612 0.00386763 0.00172713 0.0122493 0 0 0
1418 4 C 1.008 4.20205 8.97614 -23.8311 0.0297688 -0.012456 -0.00555998 0 0 0
1417 12 C 15.999 4.45418 9.76189 -24.3161 0.00151707 -0.00191807 -0.00315232 0 0 0
349 12 C 15.999 0.836987 7.46421 -23.2369 -0.0060469 0.0023743 0.000426351 0 0 0
781 12 C 15.999 8.74364 8.50111 -20.7407 -0.00468879 -0.000445831 -0.00244167 -1 0 0
1419 4 C 1.008 3.63619 -9.89813 -24.6965 -0.0109355 -0.0268858 0.00264455 0 1 0
20 3 C 1.008 2.49003 0.54655 -23.2026 -0.0197564 -0.0168837 0.008703 0 0 0
735 4 C 1.008 1.34809 2.62222 -23.2632 0.0132024 -0.00928184 -0.00462727 0 0 0
1164 4 C 1.008 -0.143886 4.79414 -21.7979 0.0114157 0.0175082 0.00199309 0 -1 0
158 4 C 1.008 9.36359 3.51895 -23.2157 0.0136741 -0.00182439 -0.00957578 0 -1 0
30 13 C 22.99 8.37786 8.63569 -23.2107 -0.0021703 -0.000469929 -0.00402495 0 0 0
1162 12 C 15.999 0.0156439 4.98804 -22.7216 0.00343767 -0.0025224 -0.00359422 0 -1 0
1163 4 C 1.008 0.90721 4.67846 -22.8813 0.0165045 0.0304027 0.00555748 0 -1 0
518 4 C 1.008 3.00676 4.93837 -23.3913 -0.00663974 0.00221178 -0.0117352 0 -1 0
519 4 C 1.008 3.21426 3.65261 -22.6195 0.0148415 0.00289739 -0.0163727 0 -1 0
517 12 C 15.999 2.54928 4.15214 -23.0933 0.00188355 0.00206424 0.000960813 0 -1 0
350 4 C 1.008 0.2707 6.69435 -23.2905 0.0021417 -0.00477846 0.0171541 0 0 0
302 4 C 1.008 5.45005 1.56182 -22.4548 -0.00499331 -0.00277787 0.011924 0 0 0
303 4 C 1.008 4.4503 2.06049 -21.4332 -0.0171464 -0.00197414 -0.000366579 0 0 0
301 12 C 15.999 4.69041 2.13588 -22.3567 0.000490933 0.00568775 0.00486463 0 0 0
1107 4 C 1.008 2.09775 9.22018 -22.8646 0.0042806 0.0029709 0.00232816 0 0 0
1059 4 C 1.008 6.63904 6.19804 -23.2957 0.011734 -0.00506645 0.0289226 0 -1 0
28 14 C 35.45 3.75093 7.54163 -22.1852 -0.00249324 -0.000328005 0.00184795 -1 0 0
1694 15 C 197 6.65967 8.65117 -25.8017 0 0 0 0 0 0
1695 15 C 197 4.1623 7.20931 -25.8017 0 0 0 0 0 0
1716 15 C 197 1.66492 5.76745 -25.8017 0 0 0 0 0 0
1718 15 C 197 1.66492 8.65117 -25.8017 0 0 0 0 0 0
1768 15 C 197 9.15705 7.20931 -25.8017 0 0 0 0 0 0
1769 15 C 197 9.15705 4.32558 -25.8017 0 0 0 0 0 0
1786 15 C 197 4.1623 4.32558 -25.8017 0 0 0 0 0 0
1787 15 C 197 6.65967 2.88372 -25.8017 0 0 0 0 0 0
1788 15 C 197 4.1623 1.44186 -25.8017 0 0 0 0 0 0
1789 15 C 197 6.65967 5.76745 -25.8017 0 0 0 0 0 0